 VARIABLES = "X" "Y" "RO" "U" "V" "P" "M"
 ZONE T="  0.000000000000000E+000 " N=        9944  E=       19548
 ZONETYPE=FETRIANGLE DATAPACKING=BLOCK
 VARLOCATION=([3-7]=CELLCENTERED)
  -19.9782054645671       -16.7460447536127       -13.5432470514743       -10.4462771124608       -7.39483127129757       -4.39431260318683       -1.43672854734527        1.47853524247441        4.40194279230921        7.38347804238703        10.4122197804982        13.5308676756442        16.7310607632789        20.0189460056259        20.0156650185539        20.0123451374732     
   20.0090067226427        20.0056742799471        20.0022854763303        19.9988742323503        19.9954939648514        19.9920871178897        19.9886881104951        19.9853470049941        19.9820070605281        19.9783478910574        16.7317203104092        13.4557822172063        10.1645634122701        6.87452312340184        3.53259687976399       0.170578499054329     
  -3.16443525887912       -6.48474521199279       -9.79114624567630       -13.0836966857758       -16.3754018560739       -20.0188035791356       -20.0155069002833       -20.0121812769038       -20.0088400757232       -20.0054989473046       -20.0021446450312       -19.9987763328347       -19.9953939522161       -19.9920253568386       -19.9886729196427       -19.9853365630757     
  -19.9819979716434       0.999732936414534       0.998216026376925       0.996703519569164       0.995201241673249       0.993654384678360       0.992046609215863       0.990373066613887       0.988638234557402       0.986841995223048       0.984982018495872       0.983044299297065       0.981037377141231       0.978945059311591       0.976780023965518       0.974538412241049     
  0.972212813164561       0.969800673416065       0.967301169205622       0.964711979695761       0.962033463614785       0.959260638123528       0.956385690629271       0.953397500838536       0.950286647560137       0.947081853399845       0.943761439931682       0.940292827832999       0.936718398998062       0.933026026862249       0.929194233143830       0.925188083934892     
  0.921038215819601       0.916739362863323       0.912277623344289       0.907644006254821       0.902832046408789       0.897835202338769       0.892640875967688       0.887236287945902       0.881613755442233       0.875765492047574       0.869692618358706       0.863387884186803       0.856843320437335       0.850048891282930       0.842995712501233       0.835675276428544     
  0.828081182768782       0.820204982050512       0.812038386527499       0.803572991929255       0.794799934683547       0.785711543650661       0.776298895780895       0.766437815214695       0.756217213200058       0.745625658413389       0.734652469788979       0.723290624630574       0.711527739217515       0.699351152617465       0.686753586298957       0.673723255706448     
  0.660246219081328       0.646315056808419       0.631916242140376       0.617033048563207       0.601654315987745       0.585759361539681       0.569335650461347       0.552367646640106       0.535444561445568       0.518484212773563       0.501454312824160       0.484354916566953       0.467185609473537       0.449296580648969       0.432003913756464       0.415306072088979     
  0.399201383351908       0.383673916983819       0.368638970766699       0.354078206312495       0.339987576687107       0.326375944819108       0.313228319195302       0.300545774755775       0.288329276063463       0.276560546754345       0.265214543468865       0.254243771242619       0.243635614800386       0.233377683093899       0.223462721670877       0.213882637066061     
  0.204625746603600       0.195680806887455       0.187043220272075       0.178696721723047       0.170631619004435       0.162830889948663       0.155287700453921       0.147995660110019       0.140948670998601       0.134140520240675       0.127564311717490       0.121214477118156       0.115085809816690       0.109173004195770       0.103471528281500       9.797701277347229E-002
  9.268527776254716E-002  8.759284737213045E-002  8.269600035485812E-002  7.799098745253596E-002  7.355604946646338E-002  6.928405905077308E-002  6.517669633571320E-002  6.123222366998265E-002  5.745078174043181E-002  5.381030701858544E-002  5.032247473670011E-002  4.698519698834608E-002  4.378071755835240E-002  4.067977971021798E-002  3.767925192099401E-002  3.475622787298979E-002
  3.191102355574015E-002  2.914868800427821E-002  2.647202780796252E-002  2.388497565730138E-002  2.139362760983193E-002  1.900560097606923E-002  1.683989074730484E-002  1.475420389640759E-002  1.276823613900254E-002  1.090090419985169E-002  9.177056615205161E-003  7.531550373994654E-003  5.927553448659266E-003  4.468074170326485E-003  3.143783900755193E-003  1.992239726780263E-003
  1.073210048223384E-003  4.549197301642999E-004  1.535980393143195E-004  8.902119515546980E-005  3.392884300229645E-004  9.475606785625456E-004  1.866037867863652E-003  3.006036687209935E-003  4.296578034702713E-003  5.683231690646796E-003  7.361099741280519E-003  9.127716663392646E-003  1.099819690840680E-002  1.288694199629754E-002  1.482324733568037E-002  1.685467163349953E-002
  1.903154860339949E-002  2.132046080806365E-002  2.373123633384601E-002  2.620459377950601E-002  2.874800065326069E-002  3.140526019215409E-002  3.421579636716608E-002  3.717712821846862E-002  4.027886008317083E-002  4.350905770576773E-002  4.685692322716012E-002  5.031063838365459E-002  5.386681260888727E-002  5.752530632656361E-002  6.127879708199578E-002  6.548686211600280E-002
  6.984060299010920E-002  7.433746606166799E-002  7.897434255401138E-002  8.368266134840840E-002  8.853149643081838E-002  9.354710525244794E-002  9.872742946428650E-002  0.104074587331877       0.109578886750552       0.115259771055559       0.121158225782898       0.127323972089845       0.133770059679753       0.140499723476764       0.147509530340456       0.154800754016784     
  0.162376539510628       0.170237954028023       0.178388997104653       0.186833194690073       0.195575039870616       0.204799724727979       0.214365655877204       0.224278612214934       0.234547695681215       0.245181214457890       0.256186341006939       0.267573469311982       0.279353393891207       0.291533666123612       0.304125138596594       0.317140168485619     
  0.330586283918369       0.344473437227997       0.358815082618301       0.373611544139087       0.388873509298874       0.404607099330596       0.420797840551256       0.437456094097106       0.454524457190006       0.471994681709580       0.489540618663867       0.506955491612144       0.524237596018709       0.541389347010876       0.558414486536888       0.574995053574378     
  0.591107515965693       0.606732239194675       0.621868196148663       0.636517506738101       0.650644313747283       0.664260031390592       0.677379944693403       0.690021952470975       0.702206331714584       0.713984392244064       0.725397894989273       0.736454846182771       0.747163494027400       0.757525983909348       0.767550674818381       0.777246334822963     
  0.786621716496430       0.795598864381557       0.804246803601723       0.812570324306205       0.820575288687126       0.828266317151199       0.835647721522146       0.842726722305118       0.849565865054858       0.856195029965029       0.862617299454442       0.868836452202682       0.874856350407027       0.880680978923061       0.886313622291670       0.891757385587112     
  0.897015712124608       0.902092948689970       0.906996822451582       0.911731874515924       0.916302603053902       0.920519748859756       0.924621085676920       0.928604731788236       0.932473572482230       0.936212664656169       0.939819003132156       0.943298949776216       0.946644750302460       0.949860021004850       0.952960110939679       0.955920926980543     
  0.958749128168187       0.961501142804919       0.964173920477575       0.966765625283842       0.969275007274248       0.971701490987902       0.974046255929727       0.976310349868593       0.978497092634989       0.980610393470867       0.982602050440113       0.984539277896967       0.986407399925417       0.988211169701776       0.989954557590201       0.991638862575042     
  0.993259637122047       0.994818154629529       0.996316932094680       0.997811887708797      -1.130574607892141E-003 -9.201557926341915E-004 -1.086558425430689E-003  0.995979443484709       0.997420666066838       0.995973614984847       0.997202967479370      -2.555751444569634E-003 -4.436172884225589E-004  0.995639083926920       0.996418040973821      -2.094137505418352E-003
  0.994590041521858      -2.436171448755357E-003  0.994092960855662       0.992434555101008      -7.412937921296838E-004  0.992871785502436       0.993854146230686      -2.487203783158904E-003 -4.023593108494450E-003  0.994945175142319       0.995105441270260       0.998842649387738      -1.472806577073484E-003  3.217242362612041E-004  0.991123931639544       0.989356137251446     
  0.987584451774104       0.991968201276333       0.998149959882129       0.993428511225674       0.991217282600008       2.812283187066106E-005 -2.156654354754827E-003 -4.123922046043108E-003  0.992856770339184       0.997397996735164        1.00049220275375       0.998132227761784        1.00117493781768      -3.394776105930683E-003  1.361414857946034E-003  0.996524882917478     
  0.996938868124208       0.999494095217921       0.989486781365528       0.990140630674258       0.988291752131311       0.986380479706932       0.990947538971753       0.992726073709111       1.114973946211777E-003 -8.587669521693928E-004  3.755305462849067E-003   1.00227995114272       0.990473213894786      -5.468058162352597E-003  2.641730788229092E-003  0.990976995528621     
  0.987600990399602       0.988992826024650       2.353417402207033E-003 -4.194663365722719E-003  0.991718773875948       0.999909860534017       0.999354332170558       4.129209986459013E-003  0.989148235126798      -2.620201935609573E-003 -3.850268688216479E-003   1.00319152122981        1.00125339042202       0.994865606243399       0.998998225166197        1.00107182609720     
  0.993761221349456       7.503863962891279E-003 -2.609084791315281E-003  0.999625323037848       0.998766709771176       5.785739987181546E-003  0.985633844805032       0.983646169828205       0.991878127525697       0.998005329380027       0.986889330980161      -5.944650534349806E-003  0.988296023411169       9.186008953992355E-003 -5.563942971788974E-004  6.452016048264789E-004
 -5.431442581957087E-003  0.984288475772382        1.00346434376773       0.987164136804856       0.984961141124090       0.997825155372440       0.995793384018382      -1.528103940158522E-003   1.00405771246140        1.00593586288563        1.00179855319175       0.984741515725039       0.982491250065329        1.00088850982683       0.994189908446392       0.986103699545890     
 -4.827252249455205E-003  5.780579004679907E-003  1.644564191453346E-003  7.557990824604234E-003 -7.186775633545841E-003 -1.816977212476845E-003 -1.284860384509530E-004  3.008274402989793E-004  2.115724389663372E-003  0.994748276406458        1.00263091995237       0.995609952038419       0.988290978169399       0.992572897399346       0.981912838913188       0.979756833184134     
  0.982741840444623       3.842201531009585E-003 -5.660176330328411E-003 -7.542026775906882E-003  0.977608671702272       0.989704336119691       5.345064860717828E-003  0.986014134004113       0.990908701140180       0.993711923812394        1.00039216375168       0.999616206464128       3.199357132761498E-003   1.00539651900950        1.00436968740541       0.996593260762775     
  0.998545965949213       6.331004397619903E-003   1.00003780353009        1.00233978863248       1.097384126068443E-002   1.00293636621309        1.00689204298005        1.00462902969107        1.00722951454295       0.990100714426244       0.993210028920450       0.989026448932257       1.584384277725695E-003  7.108651482300452E-003  0.990045660884711       0.985938215877040     
  0.983284220412144       8.974807741876008E-003 -6.169139443060157E-003 -3.989418819073228E-003 -2.574324306945383E-003 -3.865999965418563E-003  0.991381987747850       0.992498492983260       0.980623088841499       0.978429280403894       0.976050345663510       1.092490996708756E-002  0.992034692917980       0.996038018796849       0.995015025341882       0.997089025744982     
  4.950579037944617E-003  1.287223820005800E-002  0.987634215594756       0.987326986430886        1.00325859324070       0.989325737452670       8.987738164699353E-003  0.987366086973128      -4.219488015522592E-003 -8.095468858185484E-003  0.981416863332472       0.980094285771016       1.297233695634791E-002  0.981886208142842       0.977598410440769      -6.184593792039535E-003
  0.985385570344905      -7.583614879631854E-003  1.101179996042691E-002  0.994571838101003      -3.086024312699609E-003  3.663363526264032E-003  0.975311866773907       1.090096319103600E-002 -6.247595531148503E-004  8.701436509675898E-004  1.486507391187069E-002 -9.635511590920221E-004  6.865106342213026E-003  0.978713822265989      -6.364763593994568E-003 -9.079362670116492E-003
  8.886530513117340E-003   1.00560004247379        1.00849387125917       0.979516591956738       0.977064709926621       0.973952187558863       0.984600806359580       0.982458027735098       0.993744682372274      -1.665092912454688E-003  1.281686681791993E-002 -9.862608912973126E-003  0.976680826532053       0.974310074558139       1.509222483046015E-002  4.549446387853161E-003
  8.745765332681191E-003  1.093822616007654E-002  0.972951349743151       0.970560163461752      -8.326836263764213E-003 -1.045705368294200E-002  3.219744125259634E-005  1.320648666221680E-002  0.983724669122260       0.980891445644386       0.982788334022047       0.980154734694444       0.980961767783139       0.980515329959735        1.00891242136472        1.00563514937544     
 -5.982164358034304E-003  1.003169841966524E-003   1.00215794796782        1.00139299030538       0.984795272780594        1.00428188804074        1.00393109649905       0.971809154625422       1.730322519593466E-002  0.981830675265192       0.983224483320389       1.115388977939073E-002  0.998675840182339       0.989566284614336       0.969227755767040      -3.690351256857823E-003
 -5.177982411210019E-003  0.985629373646708       0.996023939358275       1.545235997599129E-002  0.979476314263413       2.604611358384589E-003  1.698496323963536E-002  1.482370089922311E-002  0.973583981433974        1.00789050831366       0.978680738096614        1.00138540510106        1.00031773015042       0.978321946473289       0.997605376102328       1.351548956628413E-002
 -4.426401383178064E-003 -8.372361021503242E-003 -2.774228063077791E-003 -1.008575341129693E-002 -9.726952960782499E-003  3.437360152380334E-003  0.975709960338879       0.975871614759723       0.973287197187692       1.156656410022061E-002   1.00954224197144       0.970889894619177       0.968423604191535       6.676167729010299E-003  0.971781503403500       0.965936532490899     
  0.963698707849545       8.838774009359087E-003 -7.927155114528829E-003 -1.084911475973418E-002 -1.911049434763732E-003  1.925141179162995E-002  1.706596798076742E-002  0.996484889822553        1.00311418836047      -1.190790468695363E-002  0.983000528292117       0.979825750133122      -8.685366970065881E-004 -7.279605076526355E-003  1.469793869916062E-002   1.00202952384587     
 -1.063377986644603E-002 -1.295892100290546E-002  0.977661962218585       0.977178018654062       8.932279881549364E-003  9.533170036888309E-003  0.987602262998056        1.01101516047815       0.990506718495186       1.578570569771649E-002  1.980495017699067E-003  0.969573652530587       0.967081283477393       0.964446573252848       0.961387665838901       1.776990054700352E-002
  2.385123114919142E-004  0.970575427989848       1.389324877038060E-002  1.963192398081089E-002 -1.226446636060598E-002  0.993410599185463       0.994811745036345       0.997555604809430       6.607081738827503E-003 -6.520358951652275E-003   1.00622994079276        1.00619597480040       0.967728031002723      -5.764320624407094E-003 -4.887463195539602E-003  4.169370600172812E-003
  0.970958050137840       1.273403520652758E-002  0.999244488117770        1.00093564493936       2.162239859604408E-002  1.946686729109051E-002  1.714077405229480E-002 -3.973877426762431E-003  2.206966472662799E-002  0.975024799723701       0.972198371033649      -1.469286067782865E-002  0.987973662180973      -1.058493202936365E-002   1.01064702863688       1.585208268557353E-002
  9.258088546175589E-003  2.021236706260785E-002   1.00483469445185       0.968382038826159       0.965802946802961       0.996185382905905       0.962838019913945       2.400838747200529E-002  6.131090526757582E-003  2.194257915155746E-002   1.00882451091533       6.478424769999444E-003  3.805023159237680E-003  3.477274013070669E-003  1.818122844011007E-002  3.260891567548580E-003
 -8.873312826462308E-003  0.990476854459310       0.985481473772383       0.983460244102758       0.985878968159218       0.987917794518375       0.995182595490530       1.458166218690906E-002 -1.860206138340747E-003  0.966325269560253       2.082825037897184E-002  0.969657016982905       0.991047895919392       0.990063985666416       0.987712473201836       0.985505966289858     
  0.988396337133364       0.989333802909925      -1.229388651842328E-002 -3.095248890816843E-003   1.00038160883449       0.984591769448020       0.968425899804359       0.998120206992458       0.996902758823759       2.635259441288362E-002   1.00828420711692        1.00651189517446        1.01005160714754        1.01174881404923      -1.303955058882384E-002 -1.563006861661239E-002
 -8.470999257110468E-003  1.975709531020288E-002  1.725088175915706E-002  1.450552681651585E-002 -1.008266916854473E-002  0.990795293027310        1.00917436277645       6.162064596176157E-003  0.980592799817414      -7.224464077763332E-003  0.992480917610185       0.993184951472272       0.994336355848060       1.332303959377900E-003  0.972507639298946       1.248235915895534E-002
  1.205514366512381E-002  0.981050958342019       0.970891744930204       0.959528584705523       0.963184034012681       0.960295898699000        1.00430897366375       0.964831689198611       0.967998967696816       0.973870299614857       0.972195450947754       0.975849999706950       0.976763450796509       0.975153128917925       0.973524763139176       0.957308521658258     
  0.954024226690686      -5.354754413936260E-003 -1.282802028405690E-002   1.01225604199979        1.01346286110643       0.982615064335960       0.980052517517622       6.550485705364614E-003  6.490048736478178E-004  6.945643540088600E-004  3.668776772121246E-004 -6.123544172555504E-003   1.01155013613044        1.00725019281475      -1.045531539444029E-002  2.891189016246318E-002
  2.606840582606057E-002 -1.503672508269155E-002  9.176170569334022E-003 -1.550429502328888E-002 -1.842599513738185E-002  0.992212195629597       0.990312746302177      -1.258559960721073E-002 -1.533411575703971E-002  2.695940473674029E-002   1.01114679757241       1.180920886350309E-002  0.986702188027308       0.987290814493382        1.00320574439459        1.00920982986156     
   1.01207787426892       0.987913984130471       0.961997215361743       0.959046234186372       0.955811388611047       0.952274822134701      -3.026433726801122E-003  0.978005975372878       0.985138990503805       0.984554513442275       0.982845580595122        1.00937418222371       0.977730428820372      -1.233090547497871E-002  0.984313694083448       0.967321382649635     
  0.969235462007267       0.970584302855222       0.971755139139859        1.01126026964492        1.01183883150393      -8.853521274926696E-003 -1.798248394728985E-002  0.963594419152047       0.974012583319763       0.971084756825085       6.222689964630518E-003   1.00735291347830      -4.187448118426479E-003 -7.873516672497556E-003   1.01206571929099        1.00436343104389     
   1.00223370311906        1.01303911170966       2.259259517569833E-002  2.964595907167842E-002  2.691842257433430E-002 -9.243445618157650E-003  2.272167023477229E-002  2.452335789847562E-002  2.363897280699380E-002  0.978273275083008       0.976943437858793       3.235443631403435E-003  2.962193156712697E-003  0.999245067370778       9.719636631664818E-003   1.01413574935492     
  0.961055831929206       0.987805802326037       0.993598072154689       0.995449160115449       0.957954348715778      -1.213949559440827E-002 -1.513785449105344E-002  0.964832373513608       0.980450305012230      -1.527723414342648E-002  0.981429869446052       0.984648596326411       0.991028125302944        1.00667465347594       0.973102269567678       0.969269224306774     
  0.966196945000970       0.963904602016964       0.967885570102304        1.01349952198480      -7.353384384960316E-003 -1.091996120576059E-002  1.159210651129394E-002  2.419060852392467E-002  2.014964209669277E-002  1.737408327361888E-002  3.166546278317194E-002  2.922138130397077E-002  2.777493260297854E-002   1.00519368487938       1.441679921139825E-002 -1.606886560553570E-003
 -1.584596329934550E-003   1.01433459787832        1.01664485844410      -1.541472588761204E-002  0.954846191538975       0.951729744033722       3.258136191040369E-002  3.029269096658549E-002  2.803176039246475E-002 -1.245416370933358E-002   1.01402023306690        1.01771204321654       0.975541753867628       0.970087164620065      -5.267650022295580E-003  8.908991407440368E-003
  6.908465176665790E-003 -1.841789281538713E-002   1.01424965855611        1.01534446777241       2.496762636822992E-002  2.155062646886762E-002  0.966139835639796       0.967659175529275       0.969154536502221       0.969341066935795       0.997955542082068        1.00570622172963        1.00843714601726        1.00423427777683      -1.068043926783217E-002 -1.316122105020278E-002
 -1.533160980803089E-002  0.948545168174671      -1.066311891978000E-002 -1.408078074089606E-002  0.975443814266915       0.956334102291647        1.00923501799848        1.01207353825882       0.981359464915279      -1.401548263178444E-002  0.991460960595369      -1.772559994453318E-002 -2.102392478429677E-002  3.550617982673202E-002  3.331850786991240E-002  3.117453197634022E-002
  2.919504236017672E-002  0.972493179281116       0.975298144702481        1.00115405341188       0.999904688661535       2.347593629971968E-002   1.00735514325596       1.264966725608849E-004  6.013268669585412E-003  3.173086961619038E-003  0.966794248440413       0.969180209350595       0.978458351437402       2.473461382974772E-002  1.857522729896441E-002  1.591236510292136E-002
  0.999967096484777        1.00250482556289       0.999052025256935        1.00611898859385        1.01482371932186        1.01502766498489       1.296886854135654E-002   1.00376011226051       3.456386946937897E-002  3.167712090199137E-002  0.953281401430877       0.950023462810173        1.00559157573340       0.946453679862679       3.844653831982231E-002  3.620153335471138E-002
  3.407628020069864E-002   1.00918034198156       0.961082072133232       0.957595586775177       1.907125796390585E-002  0.962712319527422       0.985181094048955       0.977212517735689      -1.673881630787396E-002  0.965691889524594       2.049771180766427E-002  1.746562211208042E-002  0.964420273606696       0.966413176118433      -2.713173274914349E-005 -7.143279625212947E-003
 -1.414870242591787E-002  9.964120329716102E-003  0.963983750404455       0.961776094911655       0.968117063973268      -1.763139025467553E-002  8.606432425747799E-003  0.954798745760238       1.429040246481676E-002  2.237067964947544E-002  2.579823081980582E-002 -1.241515218819481E-002 -1.536143111300508E-002 -1.381583889175923E-002 -1.712331707309548E-002 -1.769726556078172E-002
  0.954814399753969       0.958989658299988      -2.170858680150325E-002  4.148997052470663E-002  3.907102501092410E-002  3.671644672596691E-002  3.492167833778678E-002  6.912753376572006E-003   1.01257382780254        1.01715309197983        1.01910258598199        1.00992963039779        1.01683429440361       0.971875994062080       0.975279160391312       0.960787472924597     
 -2.346108976542628E-003  3.770334654664679E-002  3.493416573660964E-002  3.190516357038786E-002  0.951945110350476       0.948173135125096       2.387730762038858E-002  0.996879949229586       4.364924249954982E-003  4.041512677894073E-003 -1.798131133014503E-002 -1.576302300012126E-002 -1.762533700970177E-002  0.962771304240233       0.958874206913286       0.978305171639818     
  5.900804207116462E-003  3.776137658893065E-003  1.326729352702334E-002  1.128710405632269E-002  0.943622334962510       0.948700699865891      -1.847651957477497E-002 -1.841525861130486E-002 -1.769684257599161E-002 -2.148198170041598E-002  0.965087243146649       4.469112669837626E-002  4.222419797037542E-002  3.927636306990094E-002  1.970836777941404E-002  0.954385604781543     
  0.957809121830561       0.959982231504797       0.950844248914282       0.956544770233642       0.952983451033090       0.949367660820606       7.925339648952548E-003 -1.226934071366523E-002  0.997907950655084       0.974556851041009       0.973345443218576      -2.031374940829052E-002 -2.029607098962766E-002  0.970876404020516       1.627721951575474E-002  1.443468789976907E-003
  0.981581025911445       0.984628229082919       1.676339088588932E-002  2.074439822889202E-002  1.754375472966556E-002  1.417342200324294E-002  4.094739263304308E-002  3.830051928445397E-002  0.978908391974293       0.973695309995624       1.011203151893934E-002  6.795210666056471E-003  0.945249457842159       0.941748982705382       9.721781851758860E-004  1.088446415658288E-002
   1.01441179836292       0.960986790253518       0.956861269565220      -1.925350159058844E-002 -2.148368319860794E-002  0.938149275477940       0.934498342344713       2.330977662870318E-002  0.947305195024008       3.544018547806276E-002  3.225615285101392E-002  2.710932942412156E-002  4.801546399422680E-002  4.561153729336735E-002  4.315085956082254E-002  4.107385115010936E-002
 -4.958635814814688E-004  0.987839759089822       0.991070360267468       0.955219245450232       3.777316669606661E-003 -1.948679698503816E-003   1.01438013035389       2.420338959885100E-002  4.423693980242655E-002  4.163137498160613E-002  3.911143875483230E-002  2.045748207143991E-002  7.090054220577056E-003  1.359827974282241E-002  0.943791033697097       0.940199968437806     
  0.942651718240667       0.987801660105243       0.994268836586291       0.994335980203216       0.945698710788644      -2.200662642273950E-003  0.958828187142331       0.951472429423812       0.947698324266247       0.988859173164232       0.992546551987142       0.938560504065398        1.01093702403345       0.991076366748032       0.934763568222389       0.956882053143390     
  0.954872506404094       0.952726920836608       0.971896135752877       0.945848072982821       0.957667931704498       1.023744267753243E-002  6.624705733315435E-003   1.01669215117072        1.01527827219407        1.01671319299651        1.01894376532061       8.584467178246236E-004 -1.376278078842641E-003  1.053281570762927E-002  4.760466994468388E-002  4.484386301399527E-002
  4.229560362285803E-002  4.081413421002041E-002  0.950531537416666       0.946418202363598       0.930760258937318       2.101239534623195E-002  1.767187355742299E-002  2.669265050185413E-002  0.989802867880890       0.978543379233942       0.982418970819223       0.986152796963967       0.975258193828449       0.975248882531927       5.144475434010899E-002  4.900257350814053E-002
  4.653100977160933E-002  4.415081412909920E-002  4.106154750558526E-002  0.953738736648369       0.956145021631692       1.415979773123494E-002  1.731785165054349E-002  0.961704057816627       0.993475039332485       0.964229796398221       0.960206362766339       0.966785004212600       0.940175012940445       0.998339637939298        1.00133665972010       0.994472665273599     
  0.942400626930673       0.938707376622855        1.00216663463308       0.948900512316281       1.396355957579558E-002   1.01785933221587       2.831237677634552E-002  3.200564180372691E-003  0.936445038963310       0.952843857258784        1.00059156352296        1.00334271934392        1.00646953823854       0.967661746296297       0.945022347387198       0.949758462357008     
  0.945197419817215       6.522935670451994E-003  5.112706474797094E-002  4.821917852286230E-002  4.502458431557402E-002 -9.274805552295038E-003 -1.236198458467808E-002 -1.576652746673580E-002 -5.568071395324960E-003 -7.928603887838078E-003 -3.629833696037975E-003  0.987663726315384       0.979693500513756       0.999678963795895       0.944505536251584       0.936768924417755     
  0.932752865426287       2.473862224582771E-002  2.866248838378931E-002  2.441647651504486E-002  0.997165798763597       0.998509397987938       0.991041614795172        1.01823210287871        1.02030029879147       0.990619942005607       0.996137092012995       0.997261629026777       0.994395803475413       0.984441954227691       0.963309003762924       1.039155696288871E-002
  6.550171485080317E-003  0.934658688266228       0.950933489645739       0.948599121615725       3.207080913853685E-002  3.097465651735645E-002  2.899201736831472E-002  0.942183955084820       0.947530359157314       0.944116154617721       5.500246330010915E-002  5.248357115545435E-002  4.987822663255969E-002  0.983493961089900       0.987047261437384       0.987547393205045     