 VARIABLES = "X" "Y" "RO" "U" "V" "P" "M"
 ZONE T="  0.000000000000000E+000 " N=        9944  E=       19548
 ZONETYPE=FETRIANGLE DATAPACKING=BLOCK
 VARLOCATION=([3-7]=CELLCENTERED)
  -19.9782054645671       -16.7460447536127       -13.5432470514743       -10.4462771124608       -7.39483127129757       -4.39431260318683       -1.43672854734527        1.47853524247441        4.40194279230921        7.38347804238703        10.4122197804982        13.5308676756442        16.7310607632789        20.0189460056259        20.0156650185539        20.0123451374732     
   20.0090067226427        20.0056742799471        20.0022854763303        19.9988742323503        19.9954939648514        19.9920871178897        19.9886881104951        19.9853470049941        19.9820070605281        19.9783478910574        16.7317203104092        13.4557822172063        10.1645634122701        6.87452312340184        3.53259687976399       0.170578499054329     
  -3.16443525887912       -6.48474521199279       -9.79114624567630       -13.0836966857758       -16.3754018560739       -20.0188035791356       -20.0155069002833       -20.0121812769038       -20.0088400757232       -20.0054989473046       -20.0021446450312       -19.9987763328347       -19.9953939522161       -19.9920253568386       -19.9886729196427       -19.9853365630757     
  -19.9819979716434       0.999513089381050       0.997994626542675       0.996480622568837       0.994976907307919       0.993428621039800       0.991819413413691       0.990144436477591       0.988408176648038       0.986610520462268       0.984749140289845       0.982810025338767       0.980801726054734       0.978708043362683       0.976541668156800       0.974298742695059     
  0.971971855172331       0.969558454246594       0.967057718612420       0.964467328693889       0.961787645227132       0.959013684598449       0.956137632296981       0.953148365122036       0.950036459960365       0.946830649453457       0.943509248035217       0.940039667732308       0.936464302874784       0.932771023572804       0.928938347165470       0.924931334212435     
  0.920780631008937       0.916480973820724       0.912018462888014       0.907384111749884       0.902571461823463       0.897573979917659       0.892379077372457       0.886973986467014       0.881351038603131       0.875502463423905       0.869429399418744       0.863124614878779       0.856580160162883       0.849786019636108       0.842733329566737       0.835413602514827     
  0.827820457307038       0.819945462324404       0.811780345688018       0.803316716484750       0.794545721542327       0.785459696245401       0.776049720275182       0.766191652349689       0.755974370574240       0.745386432190829       0.734417138331009       0.723059440561930       0.711300924388633       0.699128891003686       0.686536014502366       0.673510457058433     
  0.660038216834428       0.646111804449604       0.631717618656586       0.616838852976594       0.601464260117581       0.585573068195220       0.569152648393051       0.552187370587091       0.535266295285644       0.518307236589517       0.501277900389704       0.484178342476763       0.467008160478730       0.449117494715309       0.431822585340981       0.415122011364247     
  0.399014210570660       0.383483351611607       0.368444804430490       0.353880306086581       0.339785880605871       0.326170457943988       0.313019099480947       0.300332930050329       0.288112956962876       0.276340934370290       0.264991841653917       0.254018196010917       0.243407400148162       0.233147077540875       0.223229986284965       0.213648042296010     
  0.204389569091212       0.195443327599337       0.186804723576734       0.178457492451238       0.170391942325983       0.162591050449409       0.155047982236784       0.147756345983989       0.140710041752077       0.133902854057669       0.127327883870113       0.120979559427542       0.114852670203707       0.108941906401180       0.103242731322834       9.775077054805524E-002
  9.246183864031565E-002  8.737245344633283E-002  8.247888714472842E-002  7.777738354017490E-002  7.334610505863232E-002  6.907799405250045E-002  6.497472162692380E-002  6.103454313439400E-002  5.725758922361504E-002  5.362181460930555E-002  5.013887183483644E-002  4.680666536329032E-002  4.360745749617168E-002  4.051203925200515E-002  3.751729102970850E-002  3.460036419980807E-002
  3.176159581314212E-002  2.900604779066459E-002  2.633654659059231E-002  2.375704455665181E-002  2.127365308166131E-002  1.889400020867334E-002  1.673663920077984E-002  1.465981253777140E-002  1.268319521654952E-002  1.082566833496131E-002  9.111980609210752E-003  7.477468241656707E-003  5.885843638754914E-003  4.439662973446802E-003  3.130052853208409E-003  1.994772400603078E-003
  1.093516103165774E-003  4.936399387219014E-004  2.094012997481105E-004  1.623035396498551E-004  4.356632580426418E-004  1.067151255982069E-003  2.008193695496502E-003  3.169287782709072E-003  4.479355756001536E-003  5.884024696170845E-003  7.581059504632928E-003  9.365712051802625E-003  1.125355421189491E-002  1.315845411398347E-002  1.511018637202928E-002  1.715679077454111E-002
  1.934898794500615E-002  2.165312048397888E-002  2.407908916154733E-002  2.656726550008808E-002  2.912520428911695E-002  3.179697344769757E-002  3.462219365627276E-002  3.759834115582130E-002  4.071494488115007E-002  4.395999808399455E-002  4.732264479495071E-002  5.079101170974869E-002  5.436169386999508E-002  5.803455078675918E-002  6.180223146002275E-002  6.602559738545680E-002
  7.039454349139261E-002  7.490649296221356E-002  7.955831342437522E-002  8.428121293382930E-002  8.914447857558769E-002  9.417442736699280E-002  9.936897254336509E-002  0.104730216046950       0.110248419653335       0.115943053933626       0.121855172615956       0.128034567625746       0.134494264324059       0.141237449625971       0.148260629510239       0.155565027240966     
  0.163153740573581       0.171027785524699       0.179191114749048       0.187647205445501       0.196400502034448       0.205636356303678       0.215212913916312       0.225135890874519       0.235414326505486       0.246056461668381       0.257069396743609       0.268463451632924       0.280249341574431       0.292434531664614       0.305029784175206       0.318047359611906     
  0.331494681674780       0.345381592214138       0.359721427086258       0.374514386778633       0.389771027704843       0.405497334456097       0.421678704253291       0.438325355169333       0.455379794906948       0.472833665311284       0.490361069501651       0.507755496529403       0.525015331836931       0.542143079341545       0.559142571462355       0.575696474855813     
  0.591781494021226       0.607378226090793       0.622485838288823       0.637106629179247       0.651204986580453       0.664792467007205       0.677884473589069       0.690499001342007       0.702656402355868       0.714407976201670       0.725795478256664       0.736826973639138       0.747510759616823       0.757849036104874       0.767850193866280       0.777523023774934     
  0.786876293771221       0.795832261384708       0.804459811112770       0.812763737908517       0.820749900908116       0.828422915725666       0.835787086143682       0.842849614606808       0.849672898081276       0.856286743487890       0.862694220986687       0.868899094399040       0.874905210321587       0.880716537584278       0.886336346518354       0.891767728920771     
  0.897014114843214       0.902079836738147       0.906972600892771       0.911696935923262       0.916257328750937       0.920464947489578       0.924557029002811       0.928531697585011       0.932391834437495       0.936122532908498       0.939720797551052       0.943192979070170       0.946531343410688       0.949739501374163       0.952832770436730       0.955787112079873     
  0.958609171266137       0.961355254920848       0.964022321100471       0.966608539074189       0.969112662108950       0.971534115827753       0.973874076533916       0.976133588519723       0.978315963101881       0.980425099609404       0.982412886589178       0.984346403549521       0.986211000170059       0.988011417353397       0.989751614818213       0.991432885843320     
  0.993050787196100       0.994606585972206       0.996102790739739       0.997595221982461      -1.064871280407767E-003 -8.710473492920391E-004 -1.002514915051147E-003  0.995755608485756       0.997197931852043       0.995749408447127       0.996989497155009      -2.480715065990181E-003 -4.113903744171301E-004  0.995427759976680       0.996207257320498      -2.050783868674337E-003
  0.994365012940612      -2.376741083765925E-003  0.993883804700551       0.992228165321398      -6.350357250560404E-004  0.992645223909004       0.993628133841820      -2.394359694246436E-003 -3.954408830622965E-003  0.994735860712129       0.994897993455516       0.998627453338872      -1.446070731617919E-003  3.367035864376343E-004  0.990895944803094       0.989126770774526     
  0.987353717934811       0.991740781474840       0.997937351846813       0.993221590960289       0.991014130202281       1.586929800473924E-004 -2.036985855087448E-003 -4.041440782454709E-003  0.992629849871849       0.997188210932209        1.00027626122022       0.997909681836661        1.00095688365503      -3.356787885361430E-003  1.359632679456194E-003  0.996318840092614     
  0.996714892538704       0.999273317162401       0.989285437364731       0.989911930119777       0.988061778072684       0.986149189687171       0.990743479773601       0.992522769334085       1.266203378478238E-003 -7.177996332317311E-004  3.945190999054111E-003   1.00206461085606       0.990273728323813      -5.391845571304268E-003  2.624176789855493E-003  0.990748834183544     
  0.987403286855737       0.988793995347697       2.524251979595688E-003 -4.093897047144121E-003  0.991491034371429       0.999688455804166       0.999142755770793       4.096905633066105E-003  0.988919005751136      -2.598609506374280E-003 -3.796063788733839E-003   1.00297493861775        1.00104028136459       0.994640094634185       0.998775721564398        1.00085070157479     
  0.993534797086323       7.445718963323621E-003 -2.474108996647571E-003  0.999411564315739       0.998558345113951       5.739607708047431E-003  0.985439754500557       0.983455756580848       0.991678500746575       0.997800598964590       0.986694040017968      -5.855918394088264E-003  0.988099824030089       9.118564695937992E-003 -5.463085016653199E-004  6.391035377870234E-004
 -5.382533719836897E-003  0.984055597869802        1.00325118161765       0.986933602705018       0.984729021130274       0.997601213678366       0.995568236513367      -1.522635470672128E-003   1.00384289581260        1.00572276075997        1.00157912057454       0.984549834557514       0.982303338264363        1.00067838819964       0.993986978779745       0.985910796416202     
 -4.794653850962857E-003  5.729097104842471E-003  1.823183080253002E-003  7.496506910767144E-003 -7.143446541428343E-003 -1.668596935240199E-003 -1.387200916465824E-004  4.601624671651247E-004  2.094049681025722E-003  0.994522306952275        1.00241966629915       0.995407757270137       0.988061298125379       0.992345647257947       0.981678114153302       0.979520756589668     
  0.982507953254552       3.805377954735506E-003 -5.595291223232810E-003 -7.464615657887870E-003  0.977371215739572       0.989507727541508       5.553767590307069E-003  0.985782346824315       0.990712104798519       0.993485069961181        1.00018539173784       0.999412923131085       3.397176804809892E-003   1.00518103129641        1.00415205224196       0.996368264723717     
  0.998321908823400       6.272204563111298E-003  0.999815414941763        1.00211894080056       1.089640018022974E-002   1.00272787693417        1.00667572561591        1.00441823409185        1.00701949406921       0.989872034046027       0.993010667334199       0.988831729657590       1.558622986825070E-003  7.336141852009595E-003  0.989816977986003       0.985706912353598     
  0.983050940397481       8.905195045443039E-003 -6.061648825004739E-003 -3.851404474946517E-003 -2.573181039088716E-003 -3.849404747530028E-003  0.991153819962811       0.992270732926809       0.980387970345622       0.978192876793370       0.975812454068451       1.118713318962814E-002  0.991838532936149       0.995812428985801       0.994788577390340       0.996887907267698     
  5.167488705110867E-003  1.314930025619272E-002  0.987440207365015       0.987134857980585        1.00303896447317       0.989096509319078       9.233256743836959E-003  0.987135749198480      -4.097067670999101E-003 -7.999286242156517E-003  0.981182396249542       0.979910813526333       1.288490613797237E-002  0.981698680906045       0.977420001386195      -6.059235543882834E-003
  0.985195216664192      -7.523777409365937E-003  1.093135084525812E-002  0.994373168121562      -2.929825940933684E-003  3.621813533449355E-003  0.975137758071144       1.116992709260134E-002 -4.574518083198119E-004  1.056866228218676E-003  1.515639781934084E-002 -9.775705965783788E-004  7.100762478701255E-003  0.978534346376517      -6.337752550790638E-003 -9.042436195213128E-003
  9.140017408548052E-003   1.00538156656164        1.00827687680248       0.979281260368482       0.976828033937962       0.973713282954722       0.984368634126069       0.982224530778560       0.993517334317870      -1.489567229086134E-003  1.309829520374892E-002 -9.791071555116306E-003  0.976504777558547       0.974138571861631       1.499562743934476E-002  4.774767050136358E-003
  8.673006238700544E-003  1.121239552048477E-002  0.972781955335704       0.970395611625177      -8.213455376094475E-003 -1.035441847505011E-002  2.270541674406198E-004  1.311625628858338E-002  0.983535769235900       0.980708348156498       0.982603153166613       0.979974711882520       0.980727362877344       0.980280895788970        1.00870068739897        1.00542709772729     
 -5.838654495570725E-003  9.735273370659682E-004   1.00195284070325        1.00119128162507       0.984608634272336        1.00406210558747        1.00371047147143       0.971642472333838       1.719817589411511E-002  0.981649019785743       0.983041691284647       1.107003622501983E-002  0.998476022781310       0.989372418775812       0.969065771889841      -3.693232206040827E-003
 -5.166222227890089E-003  0.985398033953433       0.995826310847821       1.535365809094710E-002  0.979298327095342       2.810695826429063E-003  1.729132218258313E-002  1.511936083877954E-002  0.973344336147047        1.00767632177479       0.978445293889079        1.00116327764992        1.00009424965892       0.978144018224508       0.997380298286016       1.342249010128138E-002
 -4.261904057577795E-003 -8.242645346227045E-003 -2.590849812706761E-003 -9.999399604085224E-003 -9.672100092882408E-003  3.390852919129554E-003  0.975471403850263       0.975698048102322       0.973118456112676       1.147902751760684E-002   1.00932725086541       0.970648698428671       0.968181216869520       6.920245635966712E-003  0.971541062850253       0.965692957458450     
  0.963454188587977       8.762470531751110E-003 -7.905735556725623E-003 -1.081892815663039E-002 -1.928509237607403E-003  1.957313828524166E-002  1.737696917535803E-002  0.996258925378925        1.00289227063878      -1.182819410764158E-002  0.982767660226074       0.979591099359948      -6.656840297563844E-004 -7.125570820580067E-003  1.499846086197135E-002   1.00180640030833     
 -1.051471354271597E-002 -1.284993548372837E-002  0.977486153994473       0.977005096575043       9.194198588736224E-003  9.805596146261539E-003  0.987412563369681        1.01079967655188       0.990314517055057       1.568551378343945E-002  2.194929207565110E-003  0.969332275880360       0.966838813779583       0.964202935451276       0.961142473421835       1.766322224404857E-002
  2.044247936407651E-004  0.970411655124957       1.379809481497888E-002  1.951865254357179E-002 -1.219729897323070E-002  0.993215366025888       0.994617449622131       0.997359164666253       6.859539844293011E-003 -6.513175939951578E-003   1.00601073191734        1.00597570495165       0.967569732028142      -5.592086117114886E-003 -4.894300803666538E-003  4.403202152669376E-003
  0.970717610910271       1.264185386800289E-002  0.999019939507530        1.00071149986683       2.195919296626807E-002  1.979317459424071E-002  1.745651124296328E-002 -3.783143291923928E-003  2.194835567108850E-002  0.974854054069066       0.972032636706640      -1.461212231400087E-002  0.987786320179244      -1.045123598966557E-002   1.01043404220379       1.575080890194194E-002
  9.178419112166176E-003  2.009746237339028E-002   1.00461305419276       0.968140589913556       0.965560567627219       0.995992367753398       0.962594273313142       2.435883324315932E-002  6.068269004338380E-003  2.228351407841594E-002   1.00860613986509       6.739565801815154E-003  4.047782834724360E-003  3.729297586164966E-003  1.807300600018073E-002  3.209663974615847E-003
 -8.710593601958928E-003  0.990287433629178       0.985296301837032       0.983278527176576       0.985694804818286       0.987732648045819       0.994955721551835       1.488703056458911E-002 -1.649029129504096E-003  0.966168906495309       2.071172608836902E-002  0.969416472590536       0.990819216599789       0.989834996369381       0.987482331745027       0.985274597333798     
  0.988166401974209       0.989104081430969      -1.224612742255836E-002 -3.116149653361294E-003   1.00018321895151       0.984411549196531       0.968265091882868       0.997894767539940       0.996676432921437       2.671550700706058E-002   1.00807665278471        1.00630613159817        1.00984226247947        1.01153797374558      -1.291483664059821E-002 -1.551417755663667E-002
 -8.329817287942470E-003  2.008779532958098E-002  1.757109793344576E-002  1.481540577021396E-002 -9.936368497474174E-003  0.990608678809231        1.00895501695409       6.094702566236206E-003  0.980414465553681      -7.044879911945626E-003  0.992288366886297       0.992993874108985       0.994148049055259       1.555443017008209E-003  0.972268459817430       1.276757576123411E-002
  1.234539611535853E-002  0.980875080100585       0.970652283994994       0.959283158506455       0.963035038576680       0.960152812208253        1.00410273349475       0.964679791492048       0.967758259928440       0.973632413794877       0.971957014744068       0.975613077200365       0.976527266467362       0.974916197532331       0.973287115647101       0.957171686012450     
  0.953894342989570      -5.157118549055953E-003 -1.268983448427065E-002   1.01204196950840        1.01324778440618       0.982382300302602       0.979818272284342       6.478897569278483E-003  6.076643848465536E-004  9.277500049019035E-004  6.103095379647245E-004 -6.134370574027641E-003   1.01133230953023        1.00702966624821      -1.028456346517158E-002  2.929069475488499E-002
  2.643181949480231E-002 -1.497602925087678E-002  9.455478711804939E-003 -1.537324956061800E-002 -1.830178157557009E-002  0.991983862950535       0.990083323760872      -1.249334303794220E-002 -1.523528644374503E-002  2.682505732363916E-002   1.01093978712475       1.210423101088038E-002  0.986471200209434       0.987060039464741        1.00300567159400        1.00900460685152     
   1.01187317080151       0.987683445959500       0.961850842002466       0.958905894978384       0.955677677857804       0.952148501052875      -2.804150554445461E-003  0.977834287050626       0.984907373076910       0.984322685777549       0.982613051068776        1.00915417695916       0.977494799217164      -1.217624753307647E-002  0.984081694403057       0.967079971328915     
  0.968995750822672       0.970345436050286       0.971516967158198        1.01104367247292        1.01162017485201      -8.667287739797889E-003 -1.790968118501064E-002  0.963445486058650       0.973845028672288       0.970922131514408       6.492051743628480E-003   1.00714959637659      -4.211267969710712E-003 -7.870675878651831E-003   1.01184634373383        1.00415996081519     
   1.00203680272477        1.01283031343933       2.293780142032942E-002  2.950391462436881E-002  2.678548095777605E-002 -9.244687872043328E-003  2.259896870085216E-002  2.439502762761509E-002  2.351477278828497E-002  0.978103210531673       0.976707442065648       3.496100937496086E-003  2.904686443344517E-003  0.999050034856862       9.637417405628021E-003   1.01391937015960     
  0.960911955370377       0.987624205629794       0.993370158853037       0.995221784939959       0.957707546334264      -1.196246949428961E-002 -1.508965115802501E-002  0.964590229829237       0.980216385155773      -1.513461633039017E-002  0.981256747037281       0.984472876949057       0.990845314672615        1.00645333354751       0.972937385518212       0.969108848021545     
  0.966042910540644       0.963756508228597       0.967728936042132        1.01328754441370      -7.368125460108963E-003 -1.090817864172191E-002  1.189162594759320E-002  2.454246502263589E-002  2.048473903232342E-002  1.769899519443718E-002  3.205848206130187E-002  2.960375188487283E-002  2.815149013908007E-002   1.00499508624422       1.473150836763485E-002 -1.638533054194725E-003
 -1.622761579974761E-003   1.01412436043152        1.01643396549498      -1.525973743409162E-002  0.954598222195553       0.951480677119814       3.243220188958854E-002  3.015019658895927E-002  2.789607878447146E-002 -1.244673042380435E-002   1.01380273129144        1.01749613402256       0.975373104658165       0.969927970807775      -5.293630560692119E-003  9.193913864606409E-003
  6.834041124124814E-003 -1.831269941947804E-002   1.01404335038837        1.01514042483549       2.483935724289527E-002  2.143260057584475E-002  0.965898878257677       0.967419236917089       0.968915340586566       0.969102196254571       0.997764266184732        1.00550499080506        1.00823649035924        1.00403895961814      -1.048773197805730E-002 -1.299576214522421E-002
 -1.516340822812069E-002  0.948294965999172      -1.066768190841692E-002 -1.407761254070850E-002  0.975276673377868       0.956087281493493        1.00901437099056        1.01185361740296       0.981125926110523      -1.399566324811911E-002  0.991231813598898      -1.767086990925958E-002 -2.095848547905192E-002  3.535092978125241E-002  3.316944529311181E-002  3.103122525804069E-002
  2.905701177301169E-002  0.972331365201025       0.975133391881196        1.00096051292775       0.999714948348654       2.382721448663306E-002   1.00715857944880       3.781472454329854E-004  6.289661532684011E-003  3.442075026995217E-003  0.966641898230406       0.969024878527516       0.978290476638531       2.460828936077281E-002  1.846548513897648E-002  1.581006075484667E-002
  0.999742139217669        1.00228088584187       0.998826170125096        1.00592492690935        1.01460571154100        1.01480888181242       1.287544287414180E-002   1.00353720180187       3.497184936966193E-002  3.207164810300386E-002  0.953033536370012       0.949774450987640        1.00536875111871       0.946203423893079       3.828571381980549E-002  3.604699325305332E-002
  3.392730438514707E-002   1.00898602414275       0.960838037614768       0.957349862206078       1.896013644132932E-002  0.962469760611545       0.984949279532188       0.976976754557913      -1.669707501467548E-002  0.965543107846472       2.083842594364302E-002  1.779611945011138E-002  0.964178983731070       0.966173002036888       2.324123880869008E-004 -6.939706912095655E-003
 -1.396373208746118E-002  9.879482021030627E-003  0.963837039790092       0.961633963165545       0.967966029936357      -1.754180813331692E-002  8.895838448505354E-003  0.954551836175191       1.461088748234903E-002  2.225084862968835E-002  2.566918072424941E-002 -1.239050893376036E-002 -1.533007802117655E-002 -1.377830263919342E-002 -1.709644077265113E-002 -1.755265922307917E-002
  0.954568232402517       0.958745382011951      -2.159434317998428E-002  4.132350758056019E-002  3.891141878638952E-002  3.656239579216625E-002  3.477262243946647E-002  6.835868435799811E-003   1.01237214537810        1.01694766317669        1.01889908725716        1.00972625945465        1.01663333139985       0.971717956310127       0.975117471927466       0.960544600154361     
 -2.108875287312762E-003  3.812675498737514E-002  3.534448952598962E-002  3.230142106020253E-002  0.951697391564779       0.947924261766753       2.423609071549084E-002  0.996692152084159       4.298151145168404E-003  3.973514435466548E-003 -1.794592716518943E-002 -1.574793578487741E-002 -1.761469789285072E-002  0.962529644286730       0.958630999267830       0.978069688293039     
  6.182487333523973E-003  4.055693539061545E-003  1.317222306209173E-002  1.159143544139466E-002  0.943371909230313       0.948582856398678      -1.832112155286545E-002 -1.824012141374832E-002 -1.756013146909325E-002 -2.134633802158151E-002  0.964846717189887       4.451906480697611E-002  4.205849931347429E-002  3.911792266790800E-002  1.959574154304135E-002  0.954255315412784     
  0.957671827393328       0.959841585279225       0.950721691911063       0.956410791667017       0.952856856431199       0.949248766547415       8.218922255689407E-003 -1.227539003599783E-002  0.997723309318954       0.974319737962776       0.973108173610551      -2.027997575055496E-002 -2.024947965290961E-002  0.970723321682994       1.617383363370318E-002  1.384788536426602E-003
  0.981410823318058       0.984455960130229       1.665849674331395E-002  2.109148298294001E-002  1.788062363209142E-002  1.450071200955145E-002  4.138587035265920E-002  3.872697658230252E-002  0.978742110641223       0.973540479390563       1.002509964962191E-002  6.715995463758914E-003  0.945139080069330       0.941646113468820       9.111067556004348E-004  1.119492032724832E-002
   1.01419206038111       0.960744747508377       0.956617734764220      -1.923134281193617E-002 -2.146656484602636E-002  0.938054319814350       0.934411555861853       2.318788800386351E-002  0.947190429261442       3.585318695292891E-002  3.265415217723264E-002  2.697781749484241E-002  4.783829391384403E-002  4.544047663408537E-002  4.298563485807241E-002  4.091344094652095E-002
 -2.298042688940214E-004  0.987662163852584       0.990891378965067       0.955088900460504       3.707625580879017E-003 -1.996395674609374E-003   1.01418141668953       2.456729956993780E-002  4.468949263361240E-002  4.207260798595185E-002  3.954216312460333E-002  2.034316705509528E-002  7.390065823196838E-003  1.350125273798844E-002  0.943683509944915       0.940099908059180     
  0.942399996918215       0.987627711148220       0.994084897172277       0.994156071066136       0.945447622710340      -2.254760562836242E-003  0.958690441458302       0.951349575175455       0.947583136229243       0.988628784394914       0.992317564439868       0.938307610000344        1.01073921067731       0.990901020238595       0.934509711618808       0.956637562852384     
  0.954627770637238       0.952481960880800       0.971658610005743       0.945736457584151       0.957534193223563       1.014807895324620E-002  6.542755165839393E-003   1.01648410355606        1.01506510163392        1.01649881810618        1.01873168727326       7.945350925449399E-004 -1.437392235703347E-003  1.085059127541460E-002  4.807113954484957E-002  4.529740077010776E-002
  4.273942112546476E-002  4.125171782439336E-002  0.950284079131061       0.946169641441256       0.930505399074734       2.136560289494779E-002  1.801566530339480E-002  2.706623980052469E-002  0.989572587208254       0.978308528338739       0.982185905532933       0.985921202115418       0.975021863553998       0.975012897965301       5.126273193168900E-002  4.882672322043382E-002
  4.636081319862242E-002  4.398570630698807E-002  4.090403520774285E-002  0.953612285570235       0.956015437076364       1.449456350918793E-002  1.721115434645574E-002  0.961560872028110       0.993246065399542       0.964085545802071       0.960069576956935       0.966638838558757       0.939923098795385       0.998113110021272        1.00111109910957       0.994296076665233     
  0.942295488135690       0.938610106513533        1.00197884092169       0.948653309098360       1.386436162233869E-002   1.01766184645019       2.869401129189144E-002  3.129025700350012E-003  0.936353100490202       0.952597820727802        1.00040890780049        1.00315046792843        1.00627863226687       0.967422481171737       0.944774186651368       0.949639113524654     
  0.945086826897259       6.830770850902158E-003  5.160807246107335E-002  4.868664694923382E-002  4.547879380157548E-002 -9.067824364670298E-003 -1.216430751394782E-002 -1.557137587540190E-002 -5.345208515480693E-003 -7.705263931239936E-003 -3.388189342641129E-003  0.987493459229541       0.979459386782528       0.999452449821196       0.944396419206827       0.936516276113092     
  0.932499257762509       2.510785382102050E-002  2.904867029364534E-002  2.429271482900296E-002  0.996985560773715       0.998331762331750       0.990869883674502        1.01801505814371        1.02009482468113       0.990389726265354       0.995909505191667       0.997033899763127       0.994166781466341       0.984273102603931       0.963068117554751       1.029964495252418E-002
  6.465412312852950E-003  0.934570063778872       0.950687378446140       0.948352853351293       3.192681869582940E-002  3.083402434041623E-002  2.885755462516375E-002  0.941934207917131       0.947283297525022       0.943868402138998       5.481572681129763E-002  5.230297548256517E-002  4.970371151165224E-002  0.983261348044009       0.986815831957870       0.987316085214295     