 VARIABLES = "X" "Y" "RO" "U" "V" "P" "M"
 ZONE T="  0.000000000000000E+000 " N=        9944  E=       19548
 ZONETYPE=FETRIANGLE DATAPACKING=BLOCK
 VARLOCATION=([3-7]=CELLCENTERED)
  -19.9782054645671       -16.7460447536127       -13.5432470514743       -10.4462771124608       -7.39483127129757       -4.39431260318683       -1.43672854734527        1.47853524247441        4.40194279230921        7.38347804238703        10.4122197804982        13.5308676756442        16.7310607632789        20.0189460056259        20.0156650185539        20.0123451374732     
   20.0090067226427        20.0056742799471        20.0022854763303        19.9988742323503        19.9954939648514        19.9920871178897        19.9886881104951        19.9853470049941        19.9820070605281        19.9783478910574        16.7317203104092        13.4557822172063        10.1645634122701        6.87452312340184        3.53259687976399       0.170578499054329     
  -3.16443525887912       -6.48474521199279       -9.79114624567630       -13.0836966857758       -16.3754018560739       -20.0188035791356       -20.0155069002833       -20.0121812769038       -20.0088400757232       -20.0054989473046       -20.0021446450312       -19.9987763328347       -19.9953939522161       -19.9920253568386       -19.9886729196427       -19.9853365630757     
  -19.9819979716434       0.999773430797907       0.998256890570187       0.996744744126259       0.995242816004119       0.993696310812889       0.992088892197516       0.990415711699773       0.988681245188034       0.986885374078080       0.985025767957873       0.983088423661253       0.981081878169054       0.978989940907214       0.976825286858412       0.974584057113369     
  0.972258841208194       0.969847085482225       0.967347965567790       0.964759160332376       0.962081027865517       0.959308585500087       0.956434021161626       0.953446215413948       0.950335747577925       0.947131336191459       0.943811304993998       0.940343077662924       0.936769030707607       0.933077038341253       0.929245623725325       0.925239855244820     
  0.921090365291009       0.916791887157605       0.912330518827928       0.907697268233963       0.902885668615249       0.897889176632183       0.892695192408924       0.887290934379376       0.881668716789989       0.875820750000131       0.869748150716500       0.863443665142913       0.856899320454879       0.850105077058228       0.843052046889204       0.835731718507138     
  0.828137688009593       0.820261502660276       0.812094871852179       0.803629388971224       0.794856188719145       0.785767598983206       0.776354696555749       0.766493302425632       0.756272331966343       0.745680356670378       0.734706699566195       0.723344343557668       0.711580911694316       0.699403751234646       0.686805593560769       0.673774665278466     
  0.660297037119249       0.646365303586855       0.631965952992596       0.617082274838869       0.601703126079499       0.585807841176875       0.569383903125124       0.552415793203745       0.535492735868202       0.518532550155699       0.501502948398729       0.484403983307430       0.467235235714796       0.449346915632155       0.432055044883462       0.415358063615591     
  0.399254277834284       0.383727737956961       0.368693729266547       0.354133899113646       0.340044187119439       0.326433443581480       0.313286667561015       0.300604925121438       0.288389173509261       0.276621131638469       0.265275752945138       0.254305541226265       0.243697878663512       0.233440372326747       0.223525766280940       0.213945966200028     
  0.204689289126650       0.195744491714527       0.187106976611154       0.178760479449909       0.170695308722276       0.162894442957099       0.155351048866775       0.148058736998891       0.141011410517996       0.134202857713044       0.127626183640382       0.121275821281587       0.115146565379078       0.109233111709929       0.103530929809588       9.803565195302609E-002
  9.274309987738449E-002  8.764979952085881E-002  8.275203148602722E-002  7.804604842225750E-002  7.361011236054274E-002  6.933707659139386E-002  6.522862371732523E-002  6.128301795801314E-002  5.750040262618178E-002  5.385870945952063E-002  5.036961961797436E-002  4.703104713357488E-002  4.382523109153835E-002  4.072290285279449E-002  3.772092823081392E-002  3.479638693879956E-002
  3.194959033471002E-002  2.918558490210018E-002  2.650717299983878E-002  2.391828319895085E-002  2.142500853343268E-002  1.903496442478967E-002  1.686725221243825E-002  1.477945053952863E-002  1.279126097196346E-002  1.092160946533367E-002  9.195368684977926E-003  7.547283782300155E-003  5.940397565964517E-003  4.477826582872609E-003  3.150138913941234E-003  1.994848431182486E-003
  1.071744293013013E-003  4.492528213773032E-004  1.440513117511570E-004  7.552306736441361E-005  3.197519167834983E-004  9.208965854373379E-004  1.831691664447971E-003  2.963953416854471E-003  4.246924337977161E-003  5.626290130644516E-003  7.296124459077681E-003  9.054950408665810E-003  1.091774526315661E-002  1.279919611586000E-002  1.472842306519963E-002  1.675278829541801E-002
  1.892245930025044E-002  2.120414310145743E-002  2.360764538592813E-002  2.607386338351421E-002  2.861023478289968E-002  3.126044438669519E-002  3.406382861196799E-002  3.701793515570222E-002  4.011241320109891E-002  4.333537190710866E-002  4.667604946967079E-002  5.012266158244576E-002  5.367183122897939E-002  5.732342532265735E-002  6.107014059704918E-002  6.527095275138542E-002
  6.961754856805359E-002  7.410739202518400E-002  7.873739151277813E-002  8.343908144593587E-002  8.828144235781013E-002  9.329071058748095E-002  9.846484627909412E-002  0.103805980350352       0.109304445337918       0.114979677946095       0.120872641970163       0.127033038939199       0.133473938560450       0.140198604572846       0.147203636259839       0.154490334587811     
  0.162061869463574       0.169919333042392       0.178066747115718       0.186507659211803       0.195246582689074       0.204468683153200       0.214032443444572       0.223943664330785       0.234211468229921       0.244844183370985       0.255849001557660       0.267236335261847       0.279016997068074       0.291198555552474       0.303791880001800       0.316809344071496     
  0.330258490853902       0.344149287248131       0.358495202425001       0.373296570605075       0.388564091467989       0.404303896003164       0.420501510141958       0.437167302834215       0.454243845193469       0.471722880938393       0.489278079260027       0.506702519619190       0.523994457391007       0.541156272569568       0.558191674985579       0.574782472619818     
  0.590905075673871       0.606539797604897       0.621685574674818       0.636344496011474       0.650480652017522       0.664105438965171       0.677234130159724       0.689884617791425       0.702077176838212       0.713863138583319       0.725284281147080       0.736348607134052       0.747064362985478       0.757433689885755       0.767464948244013       0.777166909150942     
  0.786548329392833       0.795531203770893       0.804184603233179       0.812513323137102       0.820523232353305       0.828218957858928       0.835604818406579       0.842688043572370       0.849531220634944       0.856164251187040       0.862590223136056       0.868812921140219       0.874836213425854       0.880664090879076       0.886299843556399       0.891746581782984     
  0.897007754099902       0.902087712753713       0.906994191875818       0.911731737509052       0.916304852445065       0.920524181909358       0.924627625460953       0.928613301466204       0.932484097606195       0.936225064118726       0.939833195243996       0.943314856859893       0.946662291691123       0.949879118656444       0.952980694994167       0.955942916880890     
  0.958772447555363       0.961525742497130       0.964199750195111       0.966792634314702       0.969303144838098       0.971730706630606       0.974076500374186       0.976341575004941       0.978529252532619       0.980643444616374       0.982635930180723       0.984573952621594       0.986442830679120       0.988247320256962       0.989991394068801       0.991676352360878     
  0.993297746675047       0.994856851741128       0.996356186329958       0.997851689792579      -1.143176458028257E-003 -9.287500899078249E-004 -1.103971571239481E-003  0.996020915903311       0.997461882125637       0.996015214513465       0.997242080459030      -2.571685377951507E-003 -4.482375486335794E-004  0.995677730013999       0.996456571959295      -2.101921310423350E-003
  0.994631811346603      -2.447971938435526E-003  0.994131137271012       0.992472133709312      -7.650787172667706E-004  0.992913938939570       0.993896193876155      -2.508226227647038E-003 -4.038674259451511E-003  0.994983386347977       0.995143247515029       0.998882141452231      -1.476565781884565E-003  3.211435766909886E-004  0.991166443828177       0.989398999584958     
  0.987627664143606       0.992010600731843       0.998188890544777       0.993466203754626       0.991254160916995      -3.487043456955579E-006 -2.186157284056932E-003 -4.142787672499734E-003  0.992899076399655       0.997436313152905        1.00053186831688       0.998173448741959        1.00121508383409      -3.401763069097494E-003  1.364755606771525E-003  0.996562382694939     
  0.996980463341653       0.999534863364075       0.989523272096090       0.990183352951858       0.988334797574152       0.986423860823737       0.990984615011424       0.992762980950406       1.076179041281319E-003 -8.951395560533233E-004  3.701842386993669E-003   1.00231950875649       0.990509294888506      -5.485602971218636E-003  2.648765195280832E-003  0.991019610513760     
  0.987636697405024       0.989028771192012       2.307380580129400E-003 -4.219160183031610E-003  0.991761310714953       0.999950830385561       0.999393042854687       4.139708451018919E-003  0.989191120149635      -2.623148257511293E-003 -3.861358499037109E-003   1.00323137757947        1.00129244479394       0.994907568267165       0.999039476790857        1.00111276440889     
  0.993803437192500       7.520458596814105E-003 -2.644286685375152E-003  0.999664508810215       0.998804718383127       5.799497054093067E-003  0.985668775490772       0.983680311953221       0.991914233619556       0.998042541191423       0.986924513752204      -5.966100215651549E-003  0.988331394909373       9.204804086655482E-003 -5.561707542067179E-004  6.492782342179632E-004
 -5.441748489811478E-003  0.984332265646021        1.00350342682859       0.987207356954968       0.985004776948623       0.997866778276318       0.995835292495371      -1.527129050373865E-003   1.00409717288050        1.00597495285394        1.00183906776592       0.984775922853071       0.982524849321932        1.00092690831130       0.994226730605771       0.986138360765740     
 -4.833397362055498E-003  5.795488833824661E-003  1.594543408215494E-003  7.575308463614922E-003 -7.196219165657628E-003 -1.856785048244584E-003 -1.237143416868468E-004  2.580315780587407E-004  2.123508031142464E-003  0.994790410707793        1.00266957470814       0.995646610003742       0.988334008359281       0.992615347050292       0.981957129816922       0.979801494977871     
  0.982785947035281       3.853599008939278E-003 -5.674666030193573E-003 -7.560678531667962E-003  0.977653716382549       0.989739789176090       5.283919626103317E-003  0.986057617825950       0.990944145413847       0.993754308352679        1.00042982520599       0.999653098717204       3.141762511081939E-003   1.00543615200659        1.00440982012274       0.996635157055271     
  0.998587656190838       6.347543963303818E-003   1.00007906495911        1.00238069875180       1.099500446052479E-002   1.00297441154240        1.00693189666566        1.00466759255100        1.00726791909969       0.990143519462253       0.993246071425007       0.989061488283841       1.592907447568445E-003  7.039603700325756E-003  0.990088428445552       0.985981676354236     
  0.983328208465007       8.994040014085965E-003 -6.196656542025327E-003 -4.026384656521519E-003 -2.572663111497736E-003 -3.868148445093060E-003  0.991424703443386       0.992541139213505       0.980667527621389       0.978474071053041       0.976095548301848       1.084069158545841E-002  0.992070033496309       0.996080087885945       0.995057344182536       0.997125443487914     
  4.885163550975557E-003  1.278133616648559E-002  0.987669106659250       0.987361462327565        1.00329920173974       0.989368725614849       8.910899825137274E-003  0.987409341103258      -4.251079847736366E-003 -8.120082633699998E-003  0.981461153782547       0.980126935883847       1.299587131239975E-002  0.981919732280674       0.977629974613227      -6.218133478072422E-003
  0.985419671701107      -7.597449269700826E-003  1.103359961748197E-002  0.994607722433546      -3.129547727724534E-003  3.675709447235702E-003  0.975342509345891       1.081314685232481E-002 -6.714483067086371E-004  8.160353304898739E-004  1.476765001999927E-002 -9.581764437939103E-004  6.791793530976814E-003  0.978745604072483      -6.369995833609214E-003 -9.087710094769830E-003
  8.805532259229575E-003   1.00564040198827        1.00853391552391       0.979561123928676       0.977109622023720       0.973997741253462       0.984644540924297       0.982502112547699       0.993787262881968      -1.715816790667413E-003  1.272344930485304E-002 -9.880464874511866E-003  0.976711871216700       0.974340142054047       1.511794582037424E-002  4.479733026070520E-003
  8.765621658770437E-003  1.084770404434447E-002  0.972980981719784       0.970588757620146      -8.357134349741915E-003 -1.048450540167766E-002 -2.599788844901584E-005  1.323062146904981E-002  0.983758468734829       0.980923997742904       0.982821317586469       0.980186604472258       0.981006074688869       0.980559687552932        1.00895122682292        1.00567310575902     
 -6.022294667335795E-003  1.012360656723848E-003   1.00219524384832        1.00142953214232       0.984828554067572        1.00432255761235        1.00397198450018       0.971838187063920       1.733097322516745E-002  0.981862881253672       0.983256920007079       1.117641256516201E-002  0.998711966372416       0.989601131578242       0.969255781427093      -3.688074732001750E-003
 -5.179359421749561E-003  0.985672921350285       0.996059587630497       1.547852876109256E-002  0.979507730357089       2.542798957124817E-003  1.688057027774289E-002  1.472377501621568E-002  0.973629675509650        1.00792987048120       0.978725348082036        1.00142664391821        1.00035932985127       0.978353381828464       0.997647359222396       1.354022049485324E-002
 -4.473968402786516E-003 -8.408351557733526E-003 -2.828860194695219E-003 -1.010803498416443E-002 -9.740110880226563E-003  3.450663479044050E-003  0.975755313856178       0.975902108799386       0.973316651032302       1.158989326376700E-002   1.00958181389970       0.970936053350614       0.968470126263012       6.598562542917590E-003  0.971827479755864       0.965983423546696     
  0.963745894432276       8.859352738113769E-003 -7.931450603875720E-003 -1.085623493452979E-002 -1.905175806016426E-003  1.913981535692275E-002  1.695893127331978E-002  0.996527128403083        1.00315541821991      -1.192863963786771E-002  0.983044487827945       0.979870231103577      -9.307485352564149E-004 -7.324287976589401E-003  1.459527382425798E-002   1.00207107678683     
 -1.066673470827808E-002 -1.298911365647380E-002  0.977692921370407       0.977208327817846       8.847044676086388E-003  9.442788236597693E-003  0.987636198118179        1.01105486622839       0.990541187680780       1.581217876560684E-002  1.914466545470973E-003  0.969619915540481       0.967127883442116       0.964493532360959       0.961435107276643       1.779799509933202E-002
  2.484317992390365E-004  0.970603812044614       1.391845226504282E-002  1.966165383639135E-002 -1.228167697474793E-002  0.993445726293287       0.994846656887276       0.997590982687569       6.525228144791976E-003 -6.521002085644518E-003   1.00627049852175        1.00623682354995       0.967755236414055      -5.815622055943711E-003 -4.884567808586534E-003  4.095354460128335E-003
  0.971004075851716       1.275841814840240E-002  0.999286382774173        1.00097747802367       2.150367854220263E-002  1.935268600115581E-002  1.703107594353951E-002 -4.032205369725458E-003  2.210134101988214E-002  0.975054663559969       0.972227151243325      -1.471457050142646E-002  0.988007068247152      -1.062296687229460E-002   1.01068613690560       1.587876365452305E-002
  9.279363221076980E-003  2.024245674305177E-002   1.00487589659458       0.968428377679367       0.965849576088560       0.996219999652690       0.962885084272387       2.388316219897927E-002  6.148375899307825E-003  2.182154135100587E-002   1.00886490800743       6.392084726073720E-003  3.726508770440178E-003  3.394116090879280E-003  1.820965216659498E-002  3.275110426680143E-003
 -8.921862515526038E-003  0.990510701950785       0.985514418032983       0.983492431014208       0.985911678919826       0.987950705144733       0.995225098038452       1.447624541628022E-002 -1.926572794736298E-003  0.966352093440489       2.085869771126263E-002  0.969703131381312       0.991090810472812       0.990106941102570       0.987755719475776       0.985549571546656     
  0.988439571674377       0.989377021970198      -1.230588270941067E-002 -3.088857925289908E-003   1.00041741289318       0.984623601907960       0.968453692210076       0.998162355372558       0.996945167428227       2.622139050877481E-002   1.00832206084514        1.00654934252573        1.01008987332515        1.01178743181695      -1.307508303396490E-002 -1.566317689925691E-002
 -8.511197948765295E-003  1.964046425608864E-002  1.713865313830952E-002  1.439754284930214E-002 -1.012520181762109E-002  0.990828506828332        1.00921502031624       6.180292513949083E-003  0.980624269257092      -7.279333470069094E-003  0.992515451624087       0.993219151661016       0.994369921964197       1.261924309215744E-003  0.972553350934144       1.238675478348775E-002
  1.195663251645695E-002  0.981081861321924       0.970937595776107       0.959576197649216       0.963209267842461       0.960319857063638        1.00434652357886       0.964857514102773       0.968045180609859       0.973915695357793       0.972241059016492       0.975895056023856       0.976808360042787       0.975198299322867       0.973570193313636       0.957331129635299     
  0.954045334100083      -5.416621716363101E-003 -1.286831266568464E-002   1.01229541817228        1.01350248820006       0.982659065107541       0.980096947968859       6.569599424265666E-003  6.605707905116597E-004  6.192588166699958E-004  2.866067658885789E-004 -6.119959634877876E-003   1.01159043214733        1.00729113600510      -1.050755962023457E-002  2.877302951582296E-002
  2.593658059059860E-002 -1.505279606349954E-002  9.081898756634139E-003 -1.554263674570848E-002 -1.846250523273003E-002  0.992255062886888       0.990355932566372      -1.261031970391915E-002 -1.536158928241631E-002  2.699425696303173E-002   1.01118453694946       1.170793584380896E-002  0.986745734335329       0.987334338625943        1.00324191915571        1.00924716070393     
   1.01211509201460       0.987957504968569       0.962021847085875       0.959069559259861       0.955833275411122       0.952295102572583      -3.098236696472894E-003  0.978035985299853       0.985182722464805       0.984598281917205       0.982889556249001        1.00941501978292       0.977775223807687      -1.237728374909607E-002  0.984357574547653       0.967367754832838     
  0.969281443748737       0.970630088740362       0.971800764179922        1.01130025164082        1.01187934643181      -8.911658613946907E-003 -1.800259488545387E-002  0.963619577759345       0.974041729757084       0.971112835238391       6.132131742328163E-003   1.00738981375311      -4.180562594332342E-003 -7.873429338502115E-003   1.01210643188725        1.00440036407131     
   1.00226916863778        1.01307726497578       2.246924079778747E-002  2.968269964763897E-002  2.695290604936231E-002 -9.242633475942768E-003  2.275365875281062E-002  2.455674100093042E-002  2.367130237169197E-002  0.978302897291387       0.976988392923213       3.148036237246437E-003  2.977764918209365E-003  0.999280123044627       9.741409190072612E-003   1.01417570498430     
  0.961079885537520       0.987837908020538       0.993640879201481       0.995491893567521       0.958002336711807      -1.219461246668201E-002 -1.515052573496906E-002  0.964879007805134       0.980494703625387      -1.531975381857353E-002  0.981460133302229       0.984679403002464       0.991060474486005        1.00671580583208       0.973130811224306       0.969296847296000     
  0.966223200026440       0.963929524525670       0.967912348281139        1.01353841283344      -7.349069801273500E-003 -1.092256169066726E-002  1.148829991653212E-002  2.406444301004155E-002  2.003054813104428E-002  1.725923405256751E-002  3.151972396099091E-002  2.908055281231820E-002  2.763638622724853E-002   1.00522952622758       1.430615614564931E-002 -1.597829946759055E-003
 -1.574093902534598E-003   1.01437308741746        1.01668351170247      -1.546186148349170E-002  0.954894582566817       0.951778521625668       3.261985723460286E-002  3.032952599642986E-002  2.806688797305787E-002 -1.245593832282494E-002   1.01406047167562        1.01775192549398       0.975571116264734       0.970114464253421      -5.260430715411104E-003  8.811652859346328E-003
  6.928172674987849E-003 -1.844806383093446E-002   1.01428724596295        1.01538154023672       2.500097703319734E-002  2.158139758293405E-002  0.966186192267235       0.967705283080281       0.969200456958193       0.969386951051521       0.997989757247606        1.00574265383297        1.00847344744202        1.00426938151137      -1.074169100730588E-002 -1.321195615615726E-002
 -1.538377638054346E-002  0.948594352404538      -1.066175652856991E-002 -1.408171946452631E-002  0.975472824979349       0.956382179311004        1.00927603903331        1.01211440788482       0.981403837162302      -1.402056606207080E-002  0.991504134808033      -1.774045912378852E-002 -2.104254437178257E-002  3.554618611638270E-002  3.335696993561151E-002  3.121155096407816E-002
  2.923072957819001E-002  0.972521019847828       0.975326595710401        1.00118876587256       0.999938547550919       2.334930426008250E-002   1.00739052200842       4.231833258558772E-005  5.919154438046006E-003  3.081699826457959E-003  0.966820052070427       0.969206627360046       0.978487452158168       2.476742881033619E-002  1.860396798444836E-002  1.593921281175171E-002
   1.00000916134117        1.00254663479009       0.999094359548105        1.00615380319631        1.01486410188536        1.01506826311883       1.299342513911965E-002   1.00380164740152       3.441087657420584E-002  3.153037297673075E-002  0.953329835453863       0.950072298353001        1.00563312846379       0.946502954448404       3.848793579838975E-002  3.624135954916332E-002
  3.411471105206606E-002   1.00921520717084       0.961129312838277       0.957643369925091       1.910027202962585E-002  0.962759174718279       0.985225012064906       0.977257492538268      -1.674996484864851E-002  0.965716874562774       2.037556223247691E-002  1.734777432050956E-002  0.964466801083119       0.966459410135653      -1.151087109407363E-004 -7.208295594247790E-003
 -1.420736714460781E-002  9.986383281990373E-003  0.964008320111986       0.961799632233938       0.968142492037819      -1.765644285179856E-002  8.506654492369958E-003  0.954846908071229       1.417671661254552E-002  2.240184441857404E-002  2.583168174101199E-002 -1.242120370944126E-002 -1.536967498690149E-002 -1.382546068113369E-002 -1.713061505934399E-002 -1.774087479228267E-002
  0.954862405982885       0.959037058291129      -2.174259969474080E-002  4.153278336236967E-002  3.911211929525894E-002  3.675614674788298E-002  3.496011654335289E-002  6.932967511090780E-003   1.01261036059338        1.01719048459794        1.01913953921684        1.00996654435475        1.01687066439526       0.971902964804701       0.975306882628433       0.960834506416940     
 -2.424385635776006E-003  3.754287131201901E-002  3.477979088961002E-002  3.175725416544177E-002  0.951993569580491       0.948222018356808       2.374671356599189E-002  0.996913383163160       4.382709634505506E-003  4.059497985608004E-003 -1.799092796377486E-002 -1.576714048719942E-002 -1.762857591711794E-002  0.962818020255463       0.958921431051485       0.978349839245741     
  5.804082435148414E-003  3.679826387166739E-003  1.329216117577496E-002  1.118070412001310E-002  0.943671793982806       0.948719133652892      -1.852435143799085E-002 -1.847087746363138E-002 -1.773758210106145E-002 -2.152322256332655E-002  0.965133666234110       4.473535333863895E-002  4.226682535319808E-002  3.931716176405688E-002  1.973768604470827E-002  0.954406693800077     
  0.957831739549176       0.960005531288301       0.950863647473976       0.956566613274856       0.953003675977955       0.949386196433296       7.823329555268838E-003 -1.226784615980942E-002  0.997940661530059       0.974602170865254       0.973390856705807      -2.032325182833367E-002 -2.030909182631529E-002  0.970902228893086       1.630424524570650E-002  1.459116045102349E-003
  0.981610611797984       0.984658242556093       1.679070939631080E-002  2.061890160611483E-002  1.742259668573768E-002  1.405625500279277E-002  4.077961584814896E-002  3.813838381956523E-002  0.978937107642014       0.973721462435844       1.013476624776477E-002  6.815901025477600E-003  0.945266255694472       0.941764126413562       9.882800480743718E-004  1.077489800500236E-002
   1.01445266125096       0.961033710073818       0.956908683146235      -1.925984519227220E-002 -2.148900618460552E-002  0.938162667945677       0.934509920303805       2.334139941716598E-002  0.947322885743430       3.528430044239419E-002  3.210717512926614E-002  2.714335655031195E-002  4.806098920908070E-002  4.565552244582834E-002  4.319337058883317E-002  4.111514184837235E-002
 -5.870628591645540E-004  0.987870952729653       0.991101834415468       0.955240237324433       3.795604670324770E-003 -1.935985879200330E-003   1.01441598725453       2.407010271280679E-002  4.406235040174297E-002  4.146213338762007E-002  3.894710785274435E-002  2.048715269469386E-002  6.984702023061050E-003  1.362354438659486E-002  0.943807130387346       0.940214415462961     
  0.942701514055290       0.987832016073150       0.994301412475044       0.994367635293570       0.945748216330967      -2.186492352965059E-003  0.958850807554835       0.951491774291499       0.947715987471283       0.988902725495493       0.992589752113446       0.938610764870850        1.01097267987334       0.991107005096976       0.934814216145140       0.956929616802085     
  0.954920241197915       0.952774810789072       0.971941694186891       0.945865006873103       0.957689612598434       1.026068514481113E-002  6.645965424765516E-003   1.01673014417529        1.01531745565059        1.01675267991647        1.01898271709347       8.751715368454237E-004 -1.360455589589747E-003  1.041953730222997E-002  4.742336029186089E-002  4.466870549825295E-002
  4.212503825737411E-002  4.064640138519868E-002  0.950580021324062       0.946467103010351       0.930811318776395       2.088372855844244E-002  1.754719628462723E-002  2.655510200172124E-002  0.989846455783483       0.978588172698583       0.982463284860358       0.986196723636928       0.975303387337058       0.975294052815701       5.149152177448337E-002  4.904777968150260E-002
  4.657478383808020E-002  4.419329629038043E-002  4.110209464563720E-002  0.953758809305707       0.956165719635789       1.403887568278557E-002  1.734553988243193E-002  0.961727872955272       0.993518295506947       0.964253730956420       0.960228650841210       0.966809302369019       0.940224978989779       0.998382184296406        1.00137895750756       0.994503554778358     
  0.942416128473282       0.938721126827865        1.00220003920091       0.948949021579043       1.398927599914505E-002   1.01789490531004       2.817087197418116E-002  3.219202662621461E-003  0.936457683956396       0.952891947679696        1.00062380278390        1.00337713193993        1.00650363313578       0.967707850440302       0.945071217605364       0.949776968555237     
  0.945213997518132       6.413625407444492E-003  5.093875755320015E-002  4.803733632807412E-002  4.484902904371660E-002 -9.341783376253316E-003 -1.242559121287988E-002 -1.582975326484203E-002 -5.640926061483591E-003 -8.002286852610887E-003 -3.710489399869081E-003  0.987693231336489       0.979738155876737       0.999721545619643       0.944521871170606       0.936819190506783     
  0.932803526458663       2.460254085139764E-002  2.851850366018337E-002  2.444851089241011E-002  0.997197507416662       0.998540495263402       0.991071415591370        1.01827228772687        1.02033771053162       0.990663570491331       0.996179941582323       0.997304572470293       0.994439132851039       0.984471176205612       0.963355627999813       1.041533266961888E-002
  6.572008468896736E-003  0.934670503262110       0.950981693106597       0.948647450613477       3.210798606729143E-002  3.101097316857447E-002  2.902673484297895E-002  0.942233314789219       0.947578891553415       0.944164989231228       5.505044638795598E-002  5.252999546232903E-002  4.992310495054068E-002  0.983538211230765       0.987091200738890       0.987591351792087     