 VARIABLES = "X" "Y" "RO" "U" "V" "P" "M"
 ZONE T="  0.000000000000000E+000 " N=        9944  E=       19548
 ZONETYPE=FETRIANGLE DATAPACKING=BLOCK
 VARLOCATION=([3-7]=CELLCENTERED)
  -19.9782054645671       -16.7460447536127       -13.5432470514743       -10.4462771124608       -7.39483127129757       -4.39431260318683       -1.43672854734527        1.47853524247441        4.40194279230921        7.38347804238703        10.4122197804982        13.5308676756442        16.7310607632789        20.0189460056259        20.0156650185539        20.0123451374732     
   20.0090067226427        20.0056742799471        20.0022854763303        19.9988742323503        19.9954939648514        19.9920871178897        19.9886881104951        19.9853470049941        19.9820070605281        19.9783478910574        16.7317203104092        13.4557822172063        10.1645634122701        6.87452312340184        3.53259687976399       0.170578499054329     
  -3.16443525887912       -6.48474521199279       -9.79114624567630       -13.0836966857758       -16.3754018560739       -20.0188035791356       -20.0155069002833       -20.0121812769038       -20.0088400757232       -20.0054989473046       -20.0021446450312       -19.9987763328347       -19.9953939522161       -19.9920253568386       -19.9886729196427       -19.9853365630757     
  -19.9819979716434       0.999819207626110       0.998303135601313       0.996791442168012       0.995289950549202       0.993743881077765       0.992136900882790       0.990464161458438       0.988730136160872       0.986934705220197       0.985075537614349       0.983138632151372       0.981132522567855       0.979041020500545       0.976876797062993       0.974635993138033     
  0.972311198688752       0.969899859563869       0.967401150709367       0.964812750679264       0.962135016959772       0.959362967193614       0.956488790005501       0.953501367017924       0.950391278280602       0.947187238664885       0.943867574416020       0.940399712429410       0.936826024485455       0.933134385961942       0.929303321728500       0.925297902553849     
  0.921148757183697       0.916850618342354       0.912389583743840       0.907756660201220       0.902945379201143       0.897949195195643       0.892755505949019       0.887351526930616       0.881729568575000       0.875881836937510       0.869809443696313       0.863505130088695       0.856960918080380       0.850166762720892       0.843113770484478       0.835793424538265     
  0.828199315846013       0.820322986943774       0.812156143046347       0.803690374063014       0.794916812052792       0.785827783309649       0.776414364118424       0.766552368869258       0.756330720052718       0.745737992656956       0.734763514959780       0.723400277232780       0.711635911419645       0.699457775648378       0.686858614673309       0.673826670204931     
  0.660348030003056       0.646415308109889       0.632015013802592       0.617130459102781       0.601750525313312       0.585854571916838       0.569430108072039       0.552461641208312       0.535538423452357       0.518578276520313       0.501548914915314       0.484450390760323       0.467282281150198       0.449394824032608       0.432103967326299       0.415408119086246     
  0.399305554848998       0.383780297940186       0.368747615575181       0.354189134660160       0.340100775327518       0.326491369231428       0.313345901236598       0.300665423721737       0.288450882254450       0.276683987861828       0.265339688376054       0.254370485339046       0.243763756360953       0.233507104890479       0.223593271819949       0.214014160543811     
  0.204758086770283       0.195813806321653       0.187176721149566       0.178830567200954       0.170765653192325       0.162964958242756       0.155421649449783       0.148129337959445       0.141081927727356       0.134273207992660       0.127696284851952       0.121345592452055       0.115215926815892       0.109301985075776       0.103599238258742       9.810332023599250E-002
  9.281005444826480E-002  8.771596873401867E-002  8.281734567927096E-002  7.811044001542518E-002  7.367353483743071E-002  6.939946536852827E-002  6.528991678827933E-002  6.134315536704209E-002  5.755932729694942E-002  5.391635952676879E-002  5.042593949607821E-002  4.708598345992621E-002  4.387872556901248E-002  4.077488416451655E-002  3.777132178148380E-002  3.484510222906519E-002
  3.199653096924724E-002  2.923065083198789E-002  2.655025858909869E-002  2.395927727395597E-002  2.146379557372287E-002  1.907142584213599E-002  1.690139222688542E-002  1.481112456330390E-002  1.282033005203598E-002  1.094794448710000E-002  9.218868346601740E-003  7.567712913340299E-003  5.957368506440605E-003  4.491077646709895E-003  3.159280730286372E-003  1.999434610062523E-003
  1.071348745338975E-003  4.436929568603950E-004  1.336982271011590E-004  6.026412462994957E-005  2.988575829125022E-004  8.954074622627009E-004  1.802500214031520E-003  2.931863245693384E-003  4.212564937562781E-003  5.590144493444064E-003  7.258362202665019E-003  9.015901455831709E-003  1.087764570106074E-002  1.275826419347547E-002  1.468681072512624E-002  1.671060171938911E-002
  1.887977614773345E-002  2.116103705765973E-002  2.356417582147055E-002  2.603008530611732E-002  2.856618896210841E-002  3.121615684911058E-002  3.401931394492478E-002  3.697320065398921E-002  4.006745905007569E-002  4.329019114655161E-002  4.663062812591037E-002  5.007697922875555E-002  5.362586097022307E-002  5.727713408386885E-002  6.102349032106769E-002  6.522386090326224E-002
  6.956995381140792E-002  7.405922684248439E-002  7.868858287550540E-002  8.338956175329017E-002  8.823113002117569E-002  9.323951489053642E-002  9.841267205556141E-002  0.103752727728329       0.109250012777428       0.114923956498477       0.120815509628893       0.126974357079754       0.133413560250565       0.140136377687221       0.147139406373053       0.154423944902075     
  0.161993161466297       0.169848148437443       0.177992928300535       0.186431050872610       0.195167033025633       0.204385983432554       0.213946440770092       0.223854214652877       0.234118437497441       0.244747450281362       0.255748460612401       0.267131898503325       0.278908597028916       0.291086149629061       0.303675452834027       0.316688910832148     
  0.330134102682233       0.344021034555095       0.358363218268705       0.373161038377811       0.388425246362620       0.404162030301146       0.420356980208899       0.437020527259392       0.454095314172997       0.471573147348645       0.489127762292700       0.506552257676978       0.523844885402287       0.541008017595579       0.558045352403856       0.574638628638410     
  0.590764198878228       0.606402315566855       0.621551856297306       0.636214853170442       0.650355329225194       0.663984628206125       0.677117976375301       0.689773224420908       0.701970611482093       0.713761450825473       0.725187504741900       0.736256749839188       0.746977409509270       0.757351601756537       0.767387669253369       0.777094368154523     
  0.786480442777962       0.795467833890198       0.804125633908128       0.812458630002573       0.820472685238756       0.828172421788083       0.835562154866310       0.842649113275086       0.849495913944510       0.856132472034810       0.862561875496376       0.868787909852109       0.874814444568428       0.880645472052772       0.886284283611903       0.891733990734416     
  0.896998043243570       0.902080795044071       0.906989983644277       0.911730156549627       0.916305817811546       0.920527505218836       0.924633249335399       0.928621166091370       0.932494143274467       0.936237221064466       0.939847390308655       0.943331018807854       0.946680343306666       0.949898983296681       0.953002303335026       0.955966184928642     
  0.958797294219316       0.961552117352786       0.964227600242710       0.966821904835148       0.969333779909451       0.971762649695324       0.974109695372409       0.976375966469038       0.978564786927404       0.980680070735202       0.982673572779842       0.984612571601983       0.986482379018707       0.988287753975638       0.990032671823169       0.991718434155410     
  0.993340591214547       0.994900419245615       0.996400439112801       0.997896616115504      -1.155455328567784E-003 -9.366206240537315E-004 -1.120720216227259E-003  0.996067919624095       0.997508567492645       0.996062369847041       0.997286180133524      -2.585320690312985E-003 -4.515039359570364E-004  0.995721252335006       0.996499972548399      -2.107641512009281E-003
  0.994679181260987      -2.457835193236348E-003  0.994174080315315       0.992514339093541      -7.866849300810290E-004  0.992961778388929       0.993943895455737      -2.525780412030229E-003 -4.050166821577879E-003  0.995026386580957       0.995185778350782       0.998926714348067      -1.477860823267807E-003  3.226159479681325E-004  0.991214719825225       0.989447698944875     
  0.987676784023990       0.992058729433228       0.998232790390791       0.993508569190333       0.991295524881681      -2.954335105864839E-005 -2.208780865960152E-003 -4.157226851472882E-003  0.992947083071633       0.997479480852339        1.00057666687542       0.998220141165508        1.00126046737980      -3.405515614034211E-003  1.370851583855492E-003  0.996604583940557     
  0.997027608826382       0.999580997830584       0.989564141543965       0.990231871744780       0.988383705035209       0.986473170283751       0.991026199281415       0.992804416351333       1.046884493784260E-003 -9.216527397804308E-004  3.667729664083496E-003   1.00236420132396       0.990549721892876      -5.498169933948833E-003  2.659221448314134E-003  0.991067989860492     
  0.987676608104174       0.989068999615996       2.275442240088710E-003 -4.237211025381964E-003  0.991809587571853       0.999997220642129       0.999436699317753       4.154245305771546E-003  0.989239823554301      -2.622598427648759E-003 -3.869246788426177E-003   1.00327643770026        1.00133652841897       0.994955158221924       0.999086208378228        1.00115912267657     
  0.993851327335853       7.542147543876699E-003 -2.668924991529900E-003  0.999708727653848       0.998847546659939       5.817859471084665E-003  0.985707733675027       0.983718300381690       0.991954724944169       0.998084432755770       0.986963809982417      -5.981090436440523E-003  0.988370955433771       9.229071958839073E-003 -5.529689130134843E-004  6.568819843635741E-004
 -5.447695711094346E-003  0.984382062063258        1.00354756870480       0.987256459570870       0.985054369886981       0.997913955034968       0.995882812312160      -1.522283430302053E-003   1.00414176666522        1.00601912670856        1.00188491318580       0.984814266851167       0.982562197286821        1.00097021967145       0.994268099492955       0.986177052604805     
 -4.835211670143251E-003  5.815474841642807E-003  1.562685132272156E-003  7.598013456010198E-003 -7.200154089092693E-003 -1.883584558098976E-003 -1.146516632947714E-004  2.286720915826121E-004  2.135362171887247E-003  0.994838196758880        1.00271320575631       0.995687819473737       0.988382873226681       0.992663509744859       0.982007508605546       0.979852301220481     
  0.982836090600161       3.869589347853403E-003 -5.684542382543296E-003 -7.572711851632179E-003  0.977704960228040       0.989779482429979       5.248011273491635E-003  0.986107062151121       0.990983858221933       0.993802385321199        1.00047227244109       0.999694647816955       3.107802201347346E-003   1.00548096402383        1.00445522438797       0.996682658992381     
  0.998634911153491       6.369690512875421E-003   1.00012581064908        1.00242702943123       1.102205167179663E-002   1.00301733760274        1.00697698594634        1.00471113633231        1.00731130687036       0.990192106307205       0.993286522588143       0.989100700600715       1.606154045367693E-003  7.002138146186949E-003  0.990136983594339       0.986031045868886     
  0.983378193290445       9.019017843131876E-003 -6.215056666195435E-003 -4.050774640535705E-003 -2.566254533032566E-003 -3.865810097566965E-003  0.991473171878645       0.992589516779439       0.980718056837042       0.978525004988570       0.976146952508428       1.080091625887199E-002  0.992109663077591       0.996127791469802       0.995105336380415       0.997166405686639     
  4.849408358046857E-003  1.274077934848375E-002  0.987708114960318       0.987400001069035        1.00334517266403       0.989417514616859       8.872150377773372E-003  0.987458450117089      -4.272972035278223E-003 -8.135644266441680E-003  0.981511497513045       0.980163110435239       1.302570066133829E-002  0.981956959543174       0.977664824206235      -6.239534124655577E-003
  0.985457721070839      -7.605381558383675E-003  1.106159814693451E-002  0.994648026197291      -3.156555099261563E-003  3.693212588636786E-003  0.975376234792316       1.077358801076817E-002 -7.009155081316060E-004  7.841991417757541E-004  1.472644162313174E-002 -9.477377746057217E-004  6.754496054221010E-003  0.978780754764409      -6.369838356816245E-003 -9.089442885100881E-003
  8.766944225137423E-003   1.00568608575642        1.00857924336982       0.979611743108341       0.977160671207985       0.974049507924537       0.984694212583157       0.982552192356952       0.993835554421835      -1.745372387030014E-003  1.268322051346069E-002 -9.890273047764903E-003  0.976746128555951       0.974373214522070       1.515032383273982E-002  4.444054662331252E-003
  8.791641342207888E-003  1.080823830998423E-002  0.973013477271603       0.970619991066930      -8.375701828761779E-003 -1.050046268513903E-002 -5.782837953103741E-005  1.326133348881679E-002  0.983796107010782       0.980960112510255       0.982858014382137       0.980221954704261       0.981056421600220       0.980610072961542        1.00899509852975        1.00571595820697     
 -6.046261933873222E-003  1.026973768772719E-003   1.00223729513343        1.00147070786410       0.984865669027635        1.00436860668320        1.00401829352685       0.971870003234323       1.736569606274772E-002  0.981898688562260       0.983293052808840       1.120548342541851E-002  0.998752624797021       0.989640141975575       0.969286371650070      -3.680182074393260E-003
 -5.175285357950049E-003  0.985722361999016       0.996099654078404       1.551158441361356E-002  0.979542574588612       2.508909702782188E-003  1.683877000588761E-002  1.468289615100737E-002  0.973681636342761        1.00797438552998       0.978776033838739        1.00147336483059        1.00040647554526       0.978388153936810       0.997694956024196       1.357180223864734E-002
 -4.501095245671727E-003 -8.429473948927565E-003 -2.858447050234682E-003 -1.012092490441131E-002 -9.746148401441656E-003  3.469804207171399E-003  0.975806908099240       0.975935747381375       0.973349034845164       1.162009219838219E-002   1.00962659009305       0.970988523060751       0.968522989408794       6.561329993194878E-003  0.971879727821068       0.966036681852351     
  0.963799467493731       8.886520938760155E-003 -7.929339491998094E-003 -1.085572198558086E-002 -1.893426707334479E-003  1.909749159274755E-002  1.691744803646968E-002  0.996575019548872        1.00320213083891      -1.193968910224844E-002  0.983094404048246       0.979920729136913      -9.625749166303024E-004 -7.348994832330816E-003  1.455469660240663E-002   1.00211816669168     
 -1.068549332129115E-002 -1.300551639860308E-002  0.977727174185377       0.977241871050121       8.808459445540826E-003  9.404070419979078E-003  0.987674135839351        1.01109980888027       0.990579806557810       1.584573439506129E-002  1.880602893277957E-003  0.969672473915643       0.967180804556624       0.964546839580683       0.961488929632355       1.783325150105315E-002
  2.646574946667878E-004  0.970634903929433       1.395069864839512E-002  1.969865410152077E-002 -1.228988043092295E-002  0.993485151152448       0.994885868619267       0.997630775552181       6.488036744001141E-003 -6.515284134069445E-003   1.00631642225475        1.00628309407790       0.967784906606590      -5.842897578271617E-003 -4.875227251719085E-003  4.059706565700520E-003
  0.971056353662161       1.278999345032548E-002  0.999333871392929        1.00102489146559       2.146090301539699E-002  1.931065054696109E-002  1.698987961620628E-002 -4.061786567195335E-003  2.214056449017163E-002  0.975087602262411       0.972258790077166      -1.472513361399672E-002  0.988044427006857      -1.064403529371504E-002   1.01073037604028       1.591270227509129E-002
  9.307611487390469E-003  2.027997922023217E-002   1.00492257975464       0.968480992258959       0.965902501238828       0.996258917760272       0.962938469567658       2.384002941269850E-002  6.171907194942193E-003  2.177900722589306E-002   1.00891065516131       6.355021607440949E-003  3.690876630348328E-003  3.358475393912497E-003  1.824541221119522E-002  3.295811900250302E-003
 -8.947068347410783E-003  0.990548630877820       0.985551189023141       0.983528313230431       0.985948214231673       0.987987524779553       0.995273289986313       1.443599087416414E-002 -1.958422706026616E-003  0.966381215847765       2.089673497028805E-002  0.969755478893692       0.991139492974088       0.990155682632805       0.987804803721023       0.985599060110158     
  0.988488628037587       0.989426047939199      -1.230942648809628E-002 -3.075815752703204E-003   1.00045773747173       0.984659143701191       0.968483950023604       0.998210135184423       0.996993242033419       2.617796990130716E-002   1.00836482181112        1.00659161826974        1.01013312766175        1.01183110833368      -1.309409611316772E-002 -1.568013326773359E-002
 -8.533896999765384E-003  1.959867558859439E-002  1.709774154994101E-002  1.435759421358035E-002 -1.014813715846429E-002  0.990865745159093        1.00926107572710       6.205262876147383E-003  0.980659241083248      -7.306729909725561E-003  0.992554193522573       0.993257537464907       0.994407644819564       1.228041808638123E-003  0.972605255236242       1.234681501637032E-002
  1.191707648466906E-002  0.981116247485199       0.970989627364295       0.959630155026161       0.963236487684372       0.960345551905989        1.00438889413647       0.964885526519605       0.968097612483249       0.973967221379304       0.972292796934642       0.975946231865673       0.976859342179862       0.975249552539348       0.973621712350754       0.957355212951504     
  0.954067624340131      -5.446124855983865E-003 -1.288937055136821E-002   1.01233998030944        1.01354735032156       0.982709000651606       0.980147362891890       6.595902984445725E-003  6.788965016356772E-004  5.852560167138514E-004  2.524209894640357E-004 -6.109229290366933E-003   1.01163607183769        1.00733752105001      -1.053310669993087E-002  2.872927796793381E-002
  2.589353441596554E-002 -1.505881248102151E-002  9.043621897127383E-003 -1.556201949851918E-002 -1.848024703433901E-002  0.992303679436641       0.990404907695463      -1.262373336056562E-002 -1.537554848916864E-002  2.703708619769461E-002   1.01122719391250       1.166875182833074E-002  0.986795139884789       0.987383707517704        1.00328270693627        1.00928933111517     
   1.01215716172753       0.988006851515096       0.962048432128125       0.959094589694897       0.955856601777717       0.952316532508979      -3.130228195357958E-003  0.978069256102189       0.985232335209702       0.984647943570159       0.982939448322165        1.00946128654568       0.977826059117435      -1.240056996918959E-002  0.984407341076247       0.967420384320310     
  0.969333593196689       0.970681999947283       0.971852480610762        1.01134552053406        1.01192524385520      -8.939124237524776E-003 -1.801069166516070E-002  0.963646854611695       0.974073879710747       0.971143707900234       6.095159564840746E-003   1.00743147450277      -4.166485705318341E-003 -7.866185338097176E-003   1.01215256088960        1.00444202855123     
   1.00230914421396        1.01312041394343       2.242687991791945E-002  2.972765507207583E-002  2.699541844019341E-002 -9.233993024721093E-003  2.279332587987708E-002  2.459790661495583E-002  2.371143511469881E-002  0.978335796995821       0.977039384086807       3.112307312502139E-003  3.000385748073759E-003  0.999319590388807       9.770518965744608E-003   1.01422095577450     
  0.961105869291281       0.987873856179775       0.993689414590681       0.995540330027378       0.958056718305085      -1.222044032230912E-002 -1.515358447173060E-002  0.964931902060355       0.980545059791074      -1.534080292044285E-002  0.981493862564488       0.984713844384874       0.991096780992515        1.00676243369405       0.973162304538902       0.969327096177435     
  0.966251803620458       0.963956647637290       0.967941672978165        1.01358241731580      -7.337033099612419E-003 -1.091715732950502E-002  1.144939448982331E-002  2.402154509590453E-002  1.998901698304578E-002  1.721858758007019E-002  3.147570632808196E-002  2.903697957236411E-002  2.759345828757608E-002   1.00526996327516       1.426644310784508E-002 -1.581947519659741E-003
 -1.556282408927257E-003   1.01441663249277        1.01672726186441      -1.548453870347781E-002  0.954949372474778       0.951833699073087       3.266677610628582E-002  3.037466860855128E-002  2.811023118405546E-002 -1.244910866823624E-002   1.01410605331183        1.01779711367441       0.975603580514440       0.970144493364640      -5.245549091166208E-003  8.773626742039390E-003
  6.955375362285970E-003 -1.846252063588035E-002   1.01432975966181        1.01542348319693       2.504217105845142E-002  2.161992656679187E-002  0.966238748922073       0.967757544119183       0.969252499511905       0.969438929192573       0.998028271398462        1.00578376348589        1.00851444039782        1.00430898484509      -1.076929342340620E-002 -1.323632817241864E-002
 -1.540809029004349E-002  0.948649933955951      -1.065193434597809E-002 -1.407351802712898E-002  0.975504932045419       0.956436615587873        1.00932251966897        1.01216071961312       0.981454135266434      -1.401674624291846E-002  0.991553079749025      -1.774462724151787E-002 -2.104835716523335E-002  3.559478063332812E-002  3.340391464412226E-002  3.125697226135270E-002
  2.927476823399945E-002  0.972551763287903       0.975358138480248        1.00122788696158       0.999976704780515       2.330717328774671E-002   1.00743046998156       7.908232734712192E-006  5.882206859914812E-003  3.045762309007031E-003  0.966848324241861       0.969235709711849       0.978519845989555       2.480822035370884E-002  1.864023429891783E-002  1.597356320141072E-002
   1.00005683932026        1.00259401844308       0.999142340930097        1.00619311228365        1.01490985569835        1.01511426889871       1.302552711114660E-002   1.00384871600307       3.436659398878979E-002  3.148660920627984E-002  0.953384635089546       0.950127501794079        1.00568021687588       0.946558597168506       3.853806039019148E-002  3.628980452671337E-002
  3.416167633407981E-002   1.00925461330962       0.961182845741106       0.957697472237267       1.913702161520657E-002  0.962812263719682       0.985274792480583       0.977308472219921      -1.675124053576855E-002  0.965744275211686       2.033426727616656E-002  1.730732226439329E-002  0.964519511313988       0.966511784525984      -1.496883108179048E-004 -7.237625582906215E-003
 -1.423364291026780E-002  1.001628966613792E-002  0.964035146446174       0.961825318373209       0.968170528907057      -1.766811651016651E-002  8.468818314357840E-003  0.954901408008656       1.413714564580795E-002  2.244095790883062E-002  2.587329330409766E-002 -1.241890250459076E-002 -1.536856956618542E-002 -1.382614883516750E-002 -1.712815287384049E-002 -1.776182684148087E-002
  0.954916706677035       0.959090722978673      -2.175776117500696E-002  4.158445246188688E-002  3.916195113492652E-002  3.680449113113513E-002  3.500715226357676E-002  6.960964107474836E-003   1.01265166547092        1.01723280538640        1.01918138724004        1.01000824695660        1.01691183839365       0.971932791795144       0.975337711090316       0.960887750510503     
 -2.457431079464720E-003  3.749831677799369E-002  3.473571381030428E-002  3.171378461457936E-002  0.952048363394931       0.948277230983550       2.370477551291750E-002  0.996951019252659       4.407902053202898E-003  4.085148765250853E-003 -1.799048319727753E-002 -1.576184567101077E-002 -1.762186038490744E-002  0.962870901077980       0.958974841706246       0.978400568765117     
  5.767083745393988E-003  3.643496829534957E-003  1.332484386276943E-002  1.114197682619304E-002  0.943727571804850       0.948738391962065      -1.854652280205872E-002 -1.849521700511985E-002 -1.775741639050121E-002 -2.154198552024146E-002  0.965186210832297       4.478855405714650E-002  4.231832427211244E-002  3.936672707562417E-002  1.977495423138188E-002  0.954429197610213     
  0.957856037202147       0.960030741307534       0.950884174402212       0.956590115358224       0.953025291999726       0.949405847514890       7.785628953336704E-003 -1.225736705577499E-002  0.997977529401950       0.974653549680463       0.973442319779964      -2.032207700569071E-002 -2.031093005329723E-002  0.970930853906230       1.633902356204919E-002  1.482314839160873E-003
  0.981643642298251       0.984691845886923       1.682601785067138E-002  2.057775376728812E-002  1.738225371443397E-002  1.401674533060221E-002  4.073478890174794E-002  3.809395738097171E-002  0.978969139143306       0.973750604901398       1.016542049760679E-002  6.844655670589315E-003  0.945283610493162       0.941779574260620       1.012286676482136E-003  1.073625999852132E-002
   1.01449897119535       0.961086773797384       0.956962259335005      -1.925590517657735E-002 -2.148348553096301E-002  0.938176112049031       0.934521300711690       2.338116346835294E-002  0.947341424958842       3.524038828076088E-002  3.206389916197543E-002  2.718570720592307E-002  4.811558442215519E-002  4.570848562436185E-002  4.324478256847526E-002  4.116528289379335E-002
 -6.216946601369837E-004  0.987905920682252       0.991137204107836       0.955262867705704       3.821856404982461E-003 -1.915424812312262E-003   1.01445656379946       2.402828162014698E-002  4.401726150123221E-002  4.141738540761209E-002  3.890273121795257E-002  2.052498613769284E-002  6.947113998895628E-003  1.365688031506979E-002  0.943823827751375       0.940229220303128     
  0.942757675439297       0.987866096024143       0.994338055828183       0.994403288548185       0.945804115122835      -2.164103413078525E-003  0.958875323396003       0.951512495036212       0.947734749914320       0.988952086943901       0.992638709325620       0.938667369236939        1.01101298656642       0.991141488694911       0.934871187203782       0.956983413201619     
  0.954974179174777       0.952828878160815       0.971993288965326       0.945882804939761       0.957713167834023       1.029212341373908E-002  6.675597447020087E-003   1.01677313947262        1.01536181130698        1.01679739934153        1.01902683342547       9.000376851765971E-004 -1.336084261207032E-003  1.038093254417835E-002  4.737799621604599E-002  4.462368759963287E-002
  4.208031354705654E-002  4.060197596173500E-002  0.950634794193280       0.946522283533136       0.930868677172873       2.084267381321731E-002  1.750689243376487E-002  2.651267233184672E-002  0.989895839831381       0.978638922544440       0.982513493387011       0.986246493012728       0.975354588136163       0.975345199916843       5.154743749437517E-002  4.910204608565664E-002
  4.662754555828575E-002  4.424470990623139E-002  4.115150802585109E-002  0.953780510691834       0.956188286166692       1.399936221309220E-002  1.738145313982053E-002  0.961753777403581       0.993567302103557       0.964280034325621       0.960253050954086       0.966836160720728       0.940281269990938       0.998430401456229        1.00142689210784       0.994538399715274     
  0.942432284015415       0.938735296171738        1.00223774418994       0.949003775953670       1.402332147754725E-002   1.01793521573336       2.812835353830429E-002  3.246085554576420E-003  0.936470434506659       0.952946283069434        1.00066021889028        1.00341595939985        1.00654216354963       0.967760026862049       0.945126325890344       0.949796862272502     
  0.945231659666206       6.376062602995582E-003  5.089308256694341E-002  4.799199920576338E-002  4.480406846159980E-002 -9.370856501128682E-003 -1.245333576320888E-002 -1.585658957478898E-002 -5.672140810492194E-003 -8.032900411904919E-003 -3.743367606454496E-003  0.987726417444800       0.979788728370563       0.999769797041552       0.944539079399363       0.936875764781625     
  0.932860472645118       2.456083919530771E-002  2.847617836575870E-002  2.448887857996807E-002  0.997233281774815       0.998575655148938       0.991105022749380        1.01831783021771        1.02038008557023       0.990712985384023       0.996228497735366       0.997353224151308       0.994488208654737       0.984503953673324       0.963408352562093       1.044759170495473E-002
  6.602551700179001E-003  0.934682499098554       0.951036110151961       0.948701968799865       3.215363019762343E-002  3.105576371771578E-002  2.906997930387175E-002  0.942288939806262       0.947633642079455       0.944220022277504       5.510764107507968E-002  5.258554901435435E-002  4.997703753482945E-002  0.983588329153480       0.987140967764415       0.987641126044206     