 VARIABLES = "X" "Y" "RO" "U" "V" "P" "M"
 ZONE T="  0.000000000000000E+000 " N=        9944  E=       19548
 ZONETYPE=FETRIANGLE DATAPACKING=BLOCK
 VARLOCATION=([3-7]=CELLCENTERED)
  -19.9782054645671       -16.7460447536127       -13.5432470514743       -10.4462771124608       -7.39483127129757       -4.39431260318683       -1.43672854734527        1.47853524247441        4.40194279230921        7.38347804238703        10.4122197804982        13.5308676756442        16.7310607632789        20.0189460056259        20.0156650185539        20.0123451374732     
   20.0090067226427        20.0056742799471        20.0022854763303        19.9988742323503        19.9954939648514        19.9920871178897        19.9886881104951        19.9853470049941        19.9820070605281        19.9783478910574        16.7317203104092        13.4557822172063        10.1645634122701        6.87452312340184        3.53259687976399       0.170578499054329     
  -3.16443525887912       -6.48474521199279       -9.79114624567630       -13.0836966857758       -16.3754018560739       -20.0188035791356       -20.0155069002833       -20.0121812769038       -20.0088400757232       -20.0054989473046       -20.0021446450312       -19.9987763328347       -19.9953939522161       -19.9920253568386       -19.9886729196427       -19.9853365630757     
  -19.9819979716434       0.999738646449819       0.998221787572548       0.996709332987063       0.995207108120523       0.993660306895410       0.992052590604553       0.990379110841112       0.988644345197199       0.986848175910693       0.984988273001231       0.983050631988079       0.981043792067890       0.978951561196538       0.976786616990007       0.974545100698290     
  0.972219601590467       0.969807566356358       0.967308171107970       0.964719094939930       0.962040696359719       0.959267992505875       0.956393170850790       0.953405111268864       0.950294392613912       0.947089735857017       0.943769463086256       0.940300995876362       0.936726713853952       0.933034490474234       0.929202847800263       0.925196852702887     
  0.921047139984866       0.916748443357829       0.912286861048587       0.907653401802545       0.902841600102249       0.897844914167026       0.892650745808573       0.887246315568198       0.881623940367042       0.875775833580532       0.869703115398329       0.863398535496894       0.856854124695653       0.850059847153937       0.843006818630078       0.835686531455492     
  0.828092585312217       0.820216530774880       0.812050080165750       0.803584829314033       0.794811914788358       0.785723665610490       0.776311158959376       0.766450220892908       0.756229761495082       0.745638349879182       0.734665305475439       0.723303606106057       0.711540868701824       0.699364433034028       0.686767021240892       0.673736849501217     
  0.660259976794709       0.646328984107274       0.631930345267662       0.617047334232190       0.601668791118628       0.585774033127006       0.569350525164509       0.552382730447328       0.535459851899752       0.518499707035687       0.501470006818364       0.484370804372190       0.467201683131475       0.449312836349490       0.432020331830831       0.415322631980369     
  0.399218063936118       0.383690696962363       0.368655829208387       0.354095122272317       0.340004529302233       0.326392913483667       0.313245283778517       0.300562715730587       0.288346174676064       0.276577385067294       0.265231304323470       0.254260437994792       0.243652171480530       0.233394114408404       0.223479013069294       0.213898774747217     
  0.204641717454451       0.195696598463949       0.187058820921131       0.178712120305709       0.170646804989966       0.162845853160925       0.155302431289377       0.148010149531644       0.140962910526335       0.134154501926713       0.127578028093955       0.121227921222351       0.115098975185698       0.109185884841124       0.103484118706423       9.798930796573715E-002
  9.269727319019776E-002  8.760453901269612E-002  8.270738467391867E-002  7.800206139314324E-002  7.356681625868074E-002  6.929451554323536E-002  6.518684005337996E-002  6.124205259240507E-002  5.746029447389035E-002  5.381950084957900E-002  5.033134847305769E-002  4.699374984211307E-002  4.378894753910391E-002  4.068768207954685E-002  3.768682156373705E-002  3.476345683369877E-002
  3.191790333553063E-002  2.915521006535223E-002  2.647818324527557E-002  2.389075527048830E-002  2.139902216387876E-002  1.901060144206552E-002  1.684450874819482E-002  1.475842655456317E-002  1.277205243407195E-002  1.090430543647674E-002  9.180038827470129E-003  7.534090897057287E-003  5.929610388965175E-003  4.469626024816011E-003  3.144794496142595E-003  1.992669065875548E-003
  1.073024552607462E-003  4.541180745545690E-004  1.522427763467568E-004  8.711785006024209E-005  3.366131264472099E-004  9.440306551293354E-004  1.861622306501974E-003  3.000753852424750E-003  4.290464079210628E-003  5.676330420852584E-003  7.353342414170871E-003  9.119139069059602E-003  1.098881833846989E-002  1.287680977842017E-002  1.481238920466727E-002  1.684309438000559E-002
  1.901924177596681E-002  2.130742634100955E-002  2.371747364399399E-002  2.619011983285695E-002  2.873282905248022E-002  3.138939255270153E-002  3.419922557812625E-002  3.715984995715436E-002  4.026087435992111E-002  4.349036867335335E-002  4.683753842447055E-002  5.029056850213208E-002  5.384606950773563E-002  5.750390235849589E-002  6.125674631242851E-002  6.546412136016451E-002
  6.981718493842680E-002  7.431338499267361E-002  7.894961428611069E-002  8.365731150478815E-002  8.850554175466371E-002  9.352056047267079E-002  9.870031100761809E-002  0.104046912775622       0.109550675921221       0.115231043152452       0.121128998038484       0.127294260030217       0.133739880762600       0.140469097882779       0.147478481277536       0.154769307235123     
  0.162344723082727       0.170205798336733       0.178356534594203       0.186800459793948       0.195542068886686       0.204766552236208       0.214332322933034       0.224245161875694       0.234514172883379       0.245147665966049       0.256152815335261       0.267540016652541       0.279320066070105       0.291500516498594       0.304092222021700       0.317107541295232     
  0.330554003762728       0.344441563051552       0.358783674722938       0.373580663690977       0.388843218590193       0.404577461570440       0.420768918876870       0.437427952524270       0.454497157225522       0.471968284359678       0.489515166872057       0.506931014387016       0.524214119131441       0.541366893514764       0.558393077078799       0.574974686113275     
  0.591088183276766       0.606713929296387       0.621850893725125       0.636501193591907       0.650628966422183       0.664245624577568       0.677366451769927       0.690009345948180       0.702194583657688       0.713973476706498       0.725387787564088       0.736445521791337       0.747154927093065       0.757518148076531       0.767543543535157       0.777239881500175     
  0.786615914623197       0.795593681672052       0.804242212303405       0.812566296815754       0.820571797705997       0.828263335676240       0.835645222895202       0.842724680465721       0.849564258083450       0.856193837879136       0.862616502507956       0.868836030971232       0.874856285836936       0.880681252385329       0.886314215591760       0.891758281009662     
  0.897016892507695       0.902094397525613       0.906998524103409       0.911733814084542       0.916304766409155       0.920522113537153       0.924623641421867       0.928607468721943       0.932476481347100       0.936215736058067       0.939822228106772       0.943302320181193       0.946648258208647       0.949863659148313       0.952963873146833       0.955924806550007     
  0.958753119062594       0.961505241538761       0.964178123729412       0.966769929917596       0.969279410331353       0.971705989680233       0.974050847674611       0.976315032250617       0.978501863466553       0.980615250790844       0.982606990317822       0.984544299176047       0.986412500839870       0.988216348666381       0.989959813159597       0.991644193318179     
  0.993265041349112       0.994823630632426       0.996322478198833       0.997817504827820      -1.132271796212353E-003 -9.213029750122104E-004 -1.088877564546973E-003  0.995985305558797       0.997426495383071       0.995979517212530       0.997208509668591      -2.557802112665359E-003 -4.441962734716003E-004  0.995644565043600       0.996423519147472      -2.095095883098947E-003
  0.994595952922475      -2.437681788868052E-003  0.994098383236145       0.992439904680392      -7.444029726561858E-004  0.992877761546335       0.993860122160779      -2.489890198897801E-003 -4.025465010252522E-003  0.994950609762144       0.995110840379520       0.998848245875889      -1.473188932589873E-003  3.217393110085793E-004  0.991129969398214       0.989362236933130     
  0.987590615115047       0.991974236470229       0.998155493518058       0.993433884611637       0.991222560109859       2.409026765291220E-005 -2.160350240627781E-003 -4.126272215694908E-003  0.992862807487386       0.997403463813538        1.00049783229998       0.998138085864498        1.00118063413272      -3.395548766308032E-003  1.362022525864736E-003  0.996530264780372     
  0.996944799088162       0.999499870573573       0.989492006619224       0.990146721767557       0.988297900436757       0.986386688454544       0.990952828352823       0.992731369680109       1.110118502510876E-003 -8.632789342417897E-004  3.748825756643065E-003   1.00228558814443       0.990478417365671      -5.470198997093959E-003  2.642911811386887E-003  0.990983084102575     
  0.987606130967860       0.988998002629020       2.347751402589828E-003 -4.197694147510923E-003  0.991724864695411       0.999915694210133       0.999359852316898       4.130942502330606E-003  0.989154370992852      -2.620392551234271E-003 -3.851611785116961E-003   1.00319720851887        1.00125896024699       0.994871589827462       0.999004111065286        1.00107767563698     
  0.993767262297379       7.506602367077783E-003 -2.613408249875377E-003  0.999630893691609       0.998772156004323       5.788003997733108E-003  0.985638902634445       0.983651144942176       0.991883345391591       0.998010692658080       0.986894425830159      -5.947259944379277E-003  0.988301149491838       9.189124505587757E-003 -5.561890438506074E-004  6.459908059931624E-004
 -5.432605742864012E-003  0.984294760261146        1.00346993432405       0.987170334326326       0.984967419777109       0.997831111249795       0.995799379534302      -1.527713048728639E-003   1.00406335339646        1.00594147304257        1.00180432813648       0.984746528240865       0.982496177564234        1.00089400906103       0.994195208880500       0.986108749797859     
 -4.827829642057349E-003  5.783084793945422E-003  1.638510980936906E-003  7.560888737771972E-003 -7.187740152739628E-003 -1.821832980170106E-003 -1.275175866172489E-004  2.955787895635938E-004  2.117089414254349E-003  0.994754321720943        1.00263645734872       0.995615247536023       0.988297156987866       0.992578993375437       0.981919230534706       0.979763306387936     
  0.982748215165582       3.844140322227106E-003 -5.661911039553942E-003 -7.544235636608461E-003  0.977615231516260       0.989709481367738       5.337758789896171E-003  0.986020347762692       0.990913854270627       0.993718028062016        1.00039758501364       0.999621547522153       3.192478112162483E-003   1.00540219660546        1.00437543338575       0.996599268718697     
  0.998551955198874       6.333837358970768E-003   1.00004371278204        1.00234565681805       1.097737458908886E-002   1.00294184162812        1.00689777055437        1.00463456926542        1.00723505410567       0.990106869251243       0.993215251400813       0.989031555963804       1.585936197024782E-003  7.100505224470145E-003  0.990051787780449       0.985944481246897     
  0.983290593962689       8.978047653740570E-003 -6.172465473162593E-003 -3.993900438068611E-003 -2.573752472702326E-003 -3.865996981701319E-003  0.991388149496587       0.992504661481686       0.980629533647987       0.978435802244251       0.976056960152692       1.091517577807594E-002  0.992039846058370       0.996044069952581       0.995021138923447       0.997094307421805     
  4.942860152844853E-003  1.286181378305221E-002  0.987639300382920       0.987332036415283        1.00326441056959       0.989331949418144       8.978772718696452E-003  0.987372337378078      -4.223351542005306E-003 -8.098391323013271E-003  0.981423291257681       0.980099115150808       1.297630064506606E-002  0.981891119383677       0.977603135029394      -6.188618928395792E-003
  0.985390572951082      -7.585181825644344E-003  1.101550475738975E-002  0.994577055599075      -3.091246783966900E-003  3.665521369877051E-003  0.975316504360408       1.089088687122993E-002 -6.303912500321902E-004  8.636924574412284E-004  1.485398076281742E-002 -9.624103685975248E-004  6.856548835420429E-003  0.978718575601751      -6.365130185486637E-003 -9.080088848534087E-003
  8.877164554458056E-003   1.00560583946931        1.00849964751598       0.979523075200111       0.977071282583670       0.973958917003223       0.984607150329241       0.982464441739060       0.993750861101775      -1.671119215760343E-003  1.280621225159353E-002 -9.864622557218480E-003  0.976685510105018       0.974314666818542       1.509659311380105E-002  4.541310658666952E-003
  8.749188178253892E-003  1.092789043424021E-002  0.972955894016214       0.970564613474191      -8.330426671285035E-003 -1.046025216933611E-002  2.534928307388928E-005  1.321061873409112E-002  0.983729629557784       0.980896279976899       0.982793223910320       0.980159514794696       0.980968216618501       0.980521811878059        1.00891802113802        1.00564062999357     
 -5.986928450630859E-003  1.004909926797410E-003   1.00216334279501        1.00139830565226       0.984800204423789        1.00428772960282        1.00393698073769       0.971813651383322       1.730797515645876E-002  0.981835497473504       0.983229336402307       1.115778808987271E-002  0.998681102237154       0.989571379105115       0.969232160464404      -3.689602974880510E-003
 -5.177784590657187E-003  0.985635698072254       0.996029143060657       1.545686972265047E-002  0.979481057171171       2.597323087632507E-003  1.697316046871840E-002  1.481238028120617E-002  0.973590709579361        1.00789617291917       0.978687262739145        1.00139133510104        1.00032373503692       0.978326674875967       0.997611436821251       1.351978798795122E-002
 -4.432017277979540E-003 -8.376603097795391E-003 -2.780632892974280E-003 -1.008832568692570E-002 -9.728345089027797E-003  3.439764209825490E-003  0.975716591783815       0.975876254735426       0.973291740359087       1.157066430768512E-002   1.00954795209127       0.970896745508282       0.968430554187627       6.667193726874337E-003  0.971788326748640       0.965943586273423     
  0.963705845781248       8.842398643753987E-003 -7.927302583129934E-003 -1.084958080778705E-002 -1.909740617745763E-003  1.923888006960437E-002  1.705392481630290E-002  0.996491013222696        1.00312014255395      -1.191023671466878E-002  0.983006939151708       0.979832291927305      -8.757734242079953E-004 -7.284835462190754E-003  1.468636785641270E-002   1.00203554582772     
 -1.063762431842172E-002 -1.296239039341399E-002  0.977666654621326       0.977182658934474       8.922500513010617E-003  9.522884294436507E-003  0.987607268293770        1.01102090254441       0.990511787592243       1.579032582132310E-002  1.972797536041813E-003  0.969580554465139       0.967088278871732       0.964453667894830       0.961394895861802       1.777477318720086E-002
  2.404826642313811E-004  0.970579872822144       1.389767360099866E-002  1.963705465072349E-002 -1.226632599009024E-002  0.993415742017850       0.994816874641890       0.997560790692939       6.597696463312937E-003 -6.519969313557914E-003   1.00623578212053        1.00620188251974       0.967732369257102      -5.770300660782031E-003 -4.886535188269492E-003  4.160817469694922E-003
  0.970964909747451       1.273838177721129E-002  0.999250559309543        1.00094172880230       2.160914974690323E-002  1.945410098222125E-002  1.712848895215797E-002 -3.980637213904305E-003  2.207517672052668E-002  0.975029388966362       0.972202859761561      -1.469524594917559E-002  0.987978623737245      -1.058936214712632E-002   1.01065267972122       1.585679271140970E-002
  9.261906727314658E-003  2.021762217677840E-002   1.00484066907534       0.968388985996590       0.965809976085973       0.996190492381178       0.962845175853337       2.399448726302338E-002  6.134155071095905E-003  2.192912057451019E-002   1.00883035505465       6.468611496075714E-003  3.796035085800903E-003  3.467837836669188E-003  1.818621656811938E-002  3.263539634446549E-003
 -8.878933257521652E-003  0.990481869084320       0.985486382473063       0.983465079722938       0.985883860244262       0.987922713763424       0.995188784416005       1.456984280455417E-002 -1.867844308353787E-003  0.966329565839219       2.083362701419252E-002  0.969663926538769       0.991054131621706       0.990070207429205       0.987718745648497       0.985512328849115     
  0.988402630193468       0.989340114911996      -1.229501520427029E-002 -3.093767561044512E-003   1.00038684794041       0.984596580601553       0.968430277812005       0.998126338997956       0.996908956884268       2.633809865937637E-002   1.00828969035147        1.00651732580840        1.01005714747687        1.01175440742220      -1.304364478072751E-002 -1.563383121077895E-002
 -8.475711091807343E-003  1.974410696217457E-002  1.723836930414505E-002  1.449347797799548E-002 -1.008761185200033E-002  0.990800252102139        1.00918026274261       6.165369848597523E-003  0.980597557360309      -7.230789887949295E-003  0.992486002997317       0.993190009554147       0.994341362056047       1.324184053759858E-003  0.972514445655827       1.247150604563511E-002
  1.204402847805258E-002  0.981055671968274       0.970898613360156       0.959535906591304       0.963188192578826       0.960299947786460        1.00431440523770       0.964835905000899       0.968005926081497       0.973877056207532       0.972202285243044       0.975856643367914       0.976770090425350       0.975159854470340       0.973531577708140       0.957312455713424     
  0.954028033698315      -5.361849110944216E-003 -1.283265960496171E-002   1.01226174077554        1.01346860565622       0.982621520091452       0.980059079300516       6.554021524827889E-003  6.512931325901147E-004  6.859638013606380E-004  3.577915076513256E-004 -6.122433893160207E-003   1.01155598574578        1.00725613550063      -1.046130158044889E-002  2.889663553745271E-002
  2.605387682599038E-002 -1.503834646087593E-002  9.165530893419680E-003 -1.550866624688180E-002 -1.843010837408734E-002  0.992218445843225       0.990319076648504      -1.258841536673317E-002 -1.533720501307674E-002  2.696556266439233E-002   1.01115228167826       1.179784708822711E-002  0.986708561191211       0.987297201480226        1.00321103175731        1.00921525994712     
   1.01208330354329       0.987920402201888       0.962001326812772       0.959050232634030       0.955815263657157       0.952278560158718      -3.034599860289837E-003  0.978010596980002       0.985145410926993       0.984560930973048       0.982852050960969        1.00938012259010       0.977737062702235      -1.233622619018397E-002  0.984320169347289       0.967328359250750     
  0.969242390590551       0.970591206249504       0.971762022097790        1.01126605965710        1.01184472644134      -8.860160710229282E-003 -1.798457623694599E-002  0.963598579982426       0.974017113644947       0.971089188025716       6.212474964815120E-003   1.00735829052288      -4.185822885503374E-003 -7.872939559620366E-003   1.01207165950107        1.00436879950828     
   1.00223891689692        1.01304465321924       2.257892462682606E-002  2.965251617530405E-002  2.692457783192062E-002 -9.242688139201375E-003  2.272729520965351E-002  2.452921299190552E-002  2.364471104241059E-002  0.978277868218108       0.976950137105207       3.225595124742004E-003  2.965151084267335E-003  0.999250230460714       9.723620999708020E-003   1.01414155441867     
  0.961059896750905       0.987810651162505       0.993604337831449       0.995455448574095       0.957961753159436      -1.214576661387339E-002 -1.513899905869414E-002  0.964839438877796       0.980456889088166      -1.528207913518729E-002  0.981434531092727       0.984653318309783       0.991033007941266        1.00668063827302       0.973106749582151       0.969273607070378     
  0.966201204141777       0.963908747984657       0.967889882720611        1.01350515974639      -7.352094240593213E-003 -1.091971138528077E-002  1.158051736170468E-002  2.417663270119985E-002  2.013643345697039E-002  1.736133612845967E-002  3.164952994500550E-002  2.920595311471122E-002  2.775977348383822E-002   1.00519894559007       1.440451053484227E-002 -1.604974770876395E-003
 -1.582389061681371E-003   1.01434018659739        1.01665048007673      -1.542008534438402E-002  0.954853727394135       0.951737408893169       3.258829953963604E-002  3.029934332218858E-002  2.803812767282638E-002 -1.245372726992383E-002   1.01402608902925        1.01771786769377       0.975546310261544       0.970091530512031      -5.265910593160993E-003  8.898070113139204E-003
  6.912162867514196E-003 -1.842124897720789E-002   1.01425513951382        1.01534989585311       2.497351820731024E-002  2.155612639908028E-002  0.966146863460709       0.967666163554055       0.969161491628583       0.969348040381242       0.997960621590789        1.00571154397430        1.00844246413011        1.00423946308098      -1.068737979986307E-002 -1.316700549251591E-002
 -1.533752477356857E-002  0.948552971323444      -1.066220685545599E-002 -1.408015735411034E-002  0.975448343180017       0.956341568233774        1.00924100384895        1.01207951808215       0.981366083018053      -1.401553043461426E-002  0.991467321300995      -1.772699544939621E-002 -2.102573832896985E-002  3.551345066123322E-002  3.332550870515013E-002  3.118128760305750E-002
  2.920157943060992E-002  0.972497600230598       0.975302628523329        1.00115919091897       0.999909740542458       2.346196806784792E-002   1.00736036451032       1.170256985911698E-004  6.002714230597925E-003  3.162847429105687E-003  0.966798478627863       0.969184499797552       0.978462903565908       2.474051538077696E-002  1.858033510424183E-002  1.591718237468581E-002
  0.999973236099973        1.00251092167786       0.999058236159290        1.00612415088950        1.01482961185009        1.01503360822778       1.297334544439521E-002   1.00376615239301       3.454722439641915E-002  3.166111506864030E-002  0.953288982122133       0.950031176315268        1.00559764241153       0.946461539928833       3.845412199653427E-002  3.620883285906783E-002
  3.408333205585616E-002   1.00918551784776       0.961089315838836       0.957602990362231       1.907648886937865E-002  0.962719487162037       0.985187622784051       0.977219263551727      -1.673971106013427E-002  0.965696049249442       2.048422762027850E-002  1.745260252164562E-002  0.964427378778829       0.966420222752043      -3.697250059421075E-005 -7.150665362441369E-003
 -1.415532945711286E-002  9.968262172587306E-003  0.963987869634642       0.961780123398777       0.968121268361190      -1.763413061717618E-002  8.595288455951320E-003  0.954806260733891       1.427783441089467E-002  2.237632668691533E-002  2.580432652629834E-002 -1.241539738153005E-002 -1.536192537719403E-002 -1.381657641116650E-002 -1.712363004807107E-002 -1.770220544527638E-002
  0.954821902914224       0.958996983355890      -2.171232404579814E-002  4.149787985101432E-002  3.907861074808827E-002  3.672376741833597E-002  3.492879389820574E-002  6.916600104926049E-003   1.01257918608935        1.01715856320915        1.01910801619128        1.00993501829625        1.01683965204164       0.971880340565250       0.975283584425750       0.960794725560162     
 -2.354946328174539E-003  3.768596945424394E-002  3.491741231514907E-002  3.188907589844363E-002  0.951952728507719       0.948180900681322       2.386297763137699E-002  0.996884952219438       4.368298098559032E-003  4.044972196307191E-003 -1.798195680950975E-002 -1.576287235398202E-002 -1.762499375512153E-002  0.962778493978494       0.958881550112875       0.978311732991816     
  5.889998418239756E-003  3.765409142122760E-003  1.327190200096226E-002  1.127527844142630E-002  0.943630302640851       0.948704281039048      -1.848191543826855E-002 -1.842149480353974E-002 -1.770145762500710E-002 -2.148658030036354E-002  0.965094377104025       4.469937086775751E-002  4.223214127237348E-002  3.928396598405937E-002  1.971373169764324E-002  0.954389412909363     
  0.957813062067501       0.959986234049457       0.950847911546297       0.956548645143305       0.952987184965604       0.949371248029749       7.913991598973854E-003 -1.226834787493042E-002  0.997912888478647       0.974563659648273       0.973352297805315      -2.031432555230972E-002 -2.029715036308724E-002  0.970880649991908       1.628215001226846E-002  1.446531205939079E-003
  0.981585630272943       0.984632881361393       1.676845208472463E-002  2.073060782910969E-002  1.753043056073724E-002  1.416053082196035E-002  4.092930356404186E-002  3.828300507882826E-002  0.978912913553105       0.973699592188694       1.011632477002016E-002  6.799204599811869E-003  0.945252899933956       0.941752283569664       9.753806687119078E-004  1.087234489967402E-002
   1.01441780225240       0.960994073378198       0.956868703137799      -1.925361776159172E-002 -2.148358371382125E-002  0.938152425850639       0.934501335672596       2.331558457004978E-002  0.947308710877346       3.542331025099258E-002  3.223998566620912E-002  2.711560354225906E-002  4.802402452712588E-002  4.561980560427252E-002  4.315885522135846E-002  4.108162836027945E-002
 -5.060111394273604E-004  0.987844526982135       0.991075164238094       0.955223046805865       3.780889493694338E-003 -1.946035597167115E-003   1.01438542535422       2.418881585491600E-002  4.421818894326687E-002  4.161316690133687E-002  3.909373192333904E-002  2.046298989329774E-002  7.078398014753629E-003  1.360303354917579E-002  0.943794412314691       0.940203204434022     
  0.942659753959676       0.987806353019980       0.994273751698685       0.994340810418097       0.945706624685484      -2.197719080270025E-003  0.958832132013103       0.951476086207341       0.947701833912879       0.988865635487134       0.992552954571731       0.938568713996227        1.01094228582732       0.991081094736050       0.934771924741757       0.956889465913259     
  0.954880007558822       0.952734501546234       0.971903059319023       0.945851521096883       0.957671794800676       1.024189760574253E-002  6.628872840744507E-003   1.01669768989418        1.01528396094968        1.01671893915521        1.01894944610466       8.617981921021285E-004 -1.372997465346602E-003  1.052035058722695E-002  4.758526849688292E-002  4.482508010332967E-002
  4.227728317329983E-002  4.079611863991012E-002  0.950539207509409       0.946426021108920       0.930768773829093       2.099831522237571E-002  1.765822360821425E-002  2.667762677116206E-002  0.989809371610969       0.978550120223240       0.982425612707818       0.986159362898962       0.975265019186168       0.975255738620963       5.145362442630221E-002  4.901113909149439E-002
  4.653930193113458E-002  4.415886445631957E-002  4.106924351798463E-002  0.953742456962681       0.956148797608192       1.414655636097750E-002  1.732305913101715E-002  0.961708108458844       0.993481485233629       0.964233864344637       0.960210281699700       0.966789108843194       0.940183142966042       0.998345909684942        1.00134288643460       0.994477425145128     
  0.942403950272122       0.938710546412889        1.00217165005744       0.948908233736316       1.396847221454306E-002   1.01786461046026       2.829697678715117E-002  3.204257405117364E-003  0.936448118316601       0.952851437340351        1.00059646406947        1.00334783505144        1.00647463213180       0.967668823354636       0.945030196811292       0.949762044026736     
  0.945200831127859       6.510911221417737E-003  5.110698845617142E-002  4.819974936622784E-002  4.500578464127975E-002 -9.282363224522694E-003 -1.236915370535739E-002 -1.577361020067660E-002 -5.576298009591248E-003 -7.936876298176260E-003 -3.638887921730823E-003  0.987668342079983       0.979700243744804       0.999685264219720       0.944508930009424       0.936777169390330     
  0.932761262326483       2.472379975469591E-002  2.864688077763181E-002  2.442244338770222E-002  0.997170640865557       0.998514186361844       0.991046266098578        1.01823799183894        1.02030578766115       0.990626484688923       0.996143436273105       0.997268022550593       0.994402296520587       0.984446536057311       0.963316232161123       1.039618513461055E-002
  6.554524126511587E-003  0.934661687130937       0.950941139410929       0.948606838698902       3.207763930612147E-002  3.098137044907074E-002  2.899852217551630E-002  0.942191941073019       0.947538115216810       0.944124031833459       5.501164417660845E-002  5.249244025968330E-002  4.988678736305102E-002  0.983500619679069       0.987053859816898       0.987554022661311     