 VARIABLES = "X" "Y" "RO" "U" "V" "P" "M"
 ZONE T="  0.000000000000000E+000 " N=        9944  E=       19548
 ZONETYPE=FETRIANGLE DATAPACKING=BLOCK
 VARLOCATION=([3-7]=CELLCENTERED)
  -19.9782054645671       -16.7460447536127       -13.5432470514743       -10.4462771124608       -7.39483127129757       -4.39431260318683       -1.43672854734527        1.47853524247441        4.40194279230921        7.38347804238703        10.4122197804982        13.5308676756442        16.7310607632789        20.0189460056259        20.0156650185539        20.0123451374732     
   20.0090067226427        20.0056742799471        20.0022854763303        19.9988742323503        19.9954939648514        19.9920871178897        19.9886881104951        19.9853470049941        19.9820070605281        19.9783478910574        16.7317203104092        13.4557822172063        10.1645634122701        6.87452312340184        3.53259687976399       0.170578499054329     
  -3.16443525887912       -6.48474521199279       -9.79114624567630       -13.0836966857758       -16.3754018560739       -20.0188035791356       -20.0155069002833       -20.0121812769038       -20.0088400757232       -20.0054989473046       -20.0021446450312       -19.9987763328347       -19.9953939522161       -19.9920253568386       -19.9886729196427       -19.9853365630757     
  -19.9819979716434       0.999394935228241       0.997875827423366       0.996361202245121       0.994856891254620       0.993308013316427       0.991698213600043       0.990022644535933       0.988285796233447       0.986487557114246       0.984625600661453       0.982685913845898       0.980677051708256       0.978582812700813       0.976415893040285       0.974172435559826     
  0.971845028249990       0.969431120709624       0.966929892774914       0.964339025516733       0.961658880607620       0.958884474263956       0.956007991368875       0.953018307757324       0.949905999767347       0.946699804031284       0.943378032400373       0.939908093885256       0.936332387624078       0.932638782665138       0.928805795021176       0.924798483714361     
  0.920647498881855       0.916347578043457       0.911884822769491       0.907250248963799       0.902437401252710       0.897439750381541       0.892244712254134       0.886839524684200       0.881216525625375       0.875367952058563       0.869294950387550       0.862990297253090       0.856446051792837       0.849652207512296       0.842599909910052       0.835280680636752     
  0.827688147058673       0.819813885576934       0.811649631442878       0.803186999759207       0.794417142065880       0.785332396707004       0.775923844668521       0.766067363014949       0.755851812747126       0.745265746171777       0.734298456636922       0.722942884313133       0.711186601211875       0.699016891897037       0.686426409503397       0.673403292766246     
  0.659933513478388       0.646009551478252       0.631617772847740       0.616741336162040       0.601368955917766       0.585479821543494       0.569061263199262       0.552097609942962       0.535177841497423       0.518219772840097       0.501191108417600       0.484091904947644       0.466921766021511       0.449030827415242       0.431735365906627       0.415034011875969     
  0.398925251891159       0.383393298867724       0.368353556820337       0.353787796584825       0.339692073562744       0.326075346952780       0.312922701743105       0.300235284583350       0.288014121414097       0.276240980137473       0.264890850649017       0.253916256662234       0.243304608982422       0.233043537651940       0.223125806309390       0.213543335038793     
  0.204284450231330       0.195337914858598       0.186699136107963       0.178351849916800       0.170286364645892       0.162485657644871       0.154942894153946       0.147651681926197       0.140605920154195       0.133799392237478       0.127225197922227       0.120877763945541       0.114751878074257       0.108842228689252       0.103144277009182       9.765364635256726E-002
  9.236614883973911E-002  8.727829952133571E-002  8.238636766153366E-002  7.768659399539526E-002  7.325710314800073E-002  6.899087221799138E-002  6.488956814127907E-002  6.095144313020120E-002  5.717662327561195E-002  5.354307212853001E-002  5.006243163603288E-002  4.673260286803044E-002  4.353585694013598E-002  4.044300711268671E-002  3.745093913142154E-002  3.453683078708807E-002
  3.170102840348872E-002  2.894859935887345E-002  2.628237874844647E-002  2.370632740733775E-002  2.122656321278677E-002  1.885071858362799E-002  1.669714608470300E-002  1.462433123638533E-002  1.265193897150631E-002  1.079883373802448E-002  9.089718906071348E-003  7.460145598304645E-003  5.874068816783930E-003  4.433839958122012E-003  3.130787456443129E-003  2.002758035404358E-003
  1.109410533429989E-003  5.177128815161314E-004  2.410485626533521E-004  2.016882572530021E-004  4.852549865578608E-004  1.126992396315207E-003  2.077985827200986E-003  3.248372910662026E-003  4.567034644429748E-003  5.979625327648046E-003  7.685081087045739E-003  9.477651004790916E-003  1.137310879549402E-002  1.328508961157673E-002  1.524357905436551E-002  1.729682808743301E-002
  1.949572674789335E-002  2.180651265254135E-002  2.423911839097165E-002  2.673376402364279E-002  2.929804270196357E-002  3.197613791762541E-002  3.480775600801583E-002  3.779035438118557E-002  4.091342899364672E-002  4.416494146049380E-002  4.753401049893052E-002  5.100873888466612E-002  5.458571542784108E-002  5.826479925822190E-002  6.203862701980019E-002  6.626861589809037E-002
  7.064413778296946E-002  7.516260572365965E-002  7.982087704328134E-002  8.455006449878780E-002  8.941954708820794E-002  9.445566730739398E-002  9.965632592581676E-002  0.105023617626735       0.110547784149692       0.116248307486592       0.122166270178779       0.128351493821566       0.134816992628698       0.141565932236201       0.148594791877890       0.155904772516999     
  0.163498950979053       0.171378320681864       0.179546813494241       0.188007885024006       0.196765958112955       0.206006449207994       0.215587393359668       0.225514478700723       0.235796716720473       0.246442318401596       0.257458352200795       0.268855105131511       0.280643257260068       0.292830235549066       0.305426762282176       0.318445055159323     
  0.331892491838371       0.345778865418499       0.360117459468236       0.374908420333036       0.390162246682499       0.405884863096461       0.422061610766289       0.438702644843023       0.455750435752208       0.473196577510179       0.490715294362926       0.508100198561444       0.525349715193938       0.542466387120550       0.559454086353574       0.575995765012675     
  0.592068232136704       0.607652187065379       0.622746882269551       0.637354694586389       0.651440120453275       0.665014778444262       0.678094123024657       0.690696190866761       0.702841366393874       0.714580943081615       0.725956672581025       0.736976645639284       0.747649180840910       0.757976502013923       0.767967013653920       0.777629516421914     
  0.786972784784682       0.795919172280494       0.804537499563662       0.812832563609319       0.820810222093364       0.828475088446527       0.835831462849745       0.842886539652965       0.849702648706370       0.856309563904052       0.862710349994671       0.868908764217910       0.874908646249888       0.880713957796747       0.886327962868860       0.891753747339161     
  0.896994735312056       0.902055252776954       0.906942996566558       0.911662489603616       0.916218213646016       0.920421529670000       0.924509431898942       0.928480047218080       0.932336254841798       0.936063164416717       0.939657784722418       0.943126461260166       0.946461468946295       0.949666415954572       0.952756605368598       0.955708023211003     
  0.958527308001359       0.961270711751900       0.963935196254042       0.966518933040502       0.969020676778277       0.971439853546970       0.973777638186717       0.976035073419952       0.978215466725714       0.980322712970360       0.982308741872821       0.984240571781738       0.986103564071182       0.987902454140199       0.989641196942736       0.991321083245498     
  0.992937671882781       0.994492227187499       0.995987253992358       0.997478528094178      -1.028875711037389E-003 -8.424032021334957E-004 -9.584092589790694E-004  0.995635815072385       0.997078607613030       0.995629490026030       0.996874271314437      -2.440628244422902E-003 -3.902384841729235E-004  0.995313513999547       0.996093261306134      -2.024730822245307E-003
  0.994244726802269      -2.343560452660240E-003  0.993770548956402       0.992116172787278      -5.811145496417883E-004  0.992524303857098       0.993507462899845      -2.346402817922327E-003 -3.916945055557054E-003  0.994622533549846       0.994785520132651       0.998511443014890      -1.427398541319321E-003  3.501885323115548E-004  0.990774434994456       0.989004690213560     
  0.987231071932014       0.991619524942739       0.997822527573356       0.993109356067645       0.990903613505324       2.233423226404952E-004 -1.977190979428095E-003 -3.998097240005482E-003  0.992508822330787       0.997074676468542        1.00015992502342       0.997790485989899        1.00083960781789      -3.333156424237173E-003  1.365654033645146E-003  0.996207013359591     
  0.996595115722345       0.999154840296588       0.989175746384541       0.989790141496892       0.987939460658707       0.986026325827951       0.990632551047951       0.992412183261205       1.339960604243264E-003 -6.486019257812830E-004  4.035966183644859E-003   1.00194858158243       0.990164881017492      -5.351296336165412E-003  2.623162581631619E-003  0.990627287015575     
  0.987295254146001       0.988685447294800       2.606644588877139E-003 -4.042480442905310E-003  0.991369681056177       0.999569769974579       0.999028411451681       4.089299558881233E-003  0.988797013593172      -2.582266708554791E-003 -3.765235119340989E-003   1.00285837609060        1.00092525100937       0.994519661758106       0.998656583307158        1.00073217339584     
  0.993414000894604       7.426533456324571E-003 -2.407582124452543E-003  0.999296221013892       0.998445466999449       5.725810691969773E-003  0.985333366367679       0.983351040875811       0.991569589736329       0.997689376832201       0.986587103083332      -5.809844145814641E-003  0.987992472151129       9.095199677974165E-003 -5.350434694960551E-004  6.431570893934240E-004
 -5.354093472650815E-003  0.983932075600813        1.00313615201796       0.986811069016173       0.984605832296410       0.997481482036580       0.995447985065875      -1.513471644104862E-003   1.00372712913867        1.00560778675857        1.00146130083540       0.984444539515258       0.982199756809811        1.00056472002874       0.993876566000687       0.985804943516827     
 -4.773460031690317E-003  5.712864812643760E-003  1.908970252113856E-003  7.475794085910459E-003 -7.117528385966792E-003 -1.596158881656263E-003 -1.365583535791649E-004  5.374586287600299E-004  2.091150906526823E-003  0.994401724943652        1.00230549517029       0.995297683556527       0.987939135179324       0.992224522437112       0.981553835987401       0.979395925361391     
  0.982384036796619       3.795707063974699E-003 -5.559762432727616E-003 -7.423575481417908E-003  0.977245820627119       0.989400189058118       5.652813761747454E-003  0.985659265315010       0.990604572507118       0.993364135150648        1.00007324892157       0.999302367432628       3.491409112861258E-003   1.00506498998106        1.00403506430980       0.996248097010265     
  0.998202160699246       6.252647630420240E-003  0.999696361486539        1.00200057014543       1.086853161272612E-002   1.00261496682101        1.00655935131559        1.00430428702848        1.00690592201052       0.989750305681911       0.992901879237815       0.988725050069919       1.553850473129524E-003  7.443439878254403E-003  0.989695225804438       0.985584080500279     
  0.982927294297588       8.880816971415484E-003 -6.007300057983244E-003 -3.783563578380046E-003 -2.565993739113530E-003 -3.835331587558646E-003  0.991032331668162       0.992149438149777       0.980263547898927       0.978067927273985       0.975686894898284       1.130966902881972E-002  0.991731200947446       0.995692029043352       0.994667839501808       0.996778328824622     
  5.270109925467234E-003  1.327833880845738E-002  0.987333851001753       0.987029355262954        1.00292111178193       0.988974577653476       9.348466833078765E-003  0.987013342750457      -4.036100094105604E-003 -7.949961483627813E-003  0.981058253755831       0.979809249329378       1.285252630335675E-002  0.981595277110402       0.977320734610007      -5.997009803447866E-003
  0.985090520604841      -7.490529931742296E-003  1.090207998257152E-002  0.994264698224066      -2.853975630336344E-003  3.609980234358805E-003  0.975040441200047       1.129539131374374E-002 -3.766758230940718E-004  1.146186367308400E-003  1.529168208574121E-002 -9.771509306278901E-004  7.211615646393023E-003  0.978434592646337      -6.319090643978633E-003 -9.019413543847558E-003
  9.258695133333102E-003   1.00526424249957        1.00816023964536       0.979156765536308       0.976702991883782       0.973587335974181       0.984245466083317       0.982100813803819       0.993396239329109      -1.405207784664703E-003  1.322922062539450E-002 -9.752684611971178E-003  0.976406577754022       0.974042432567769       1.495910044495425E-002  4.881052037825372E-003
  8.647154512815390E-003  1.134012266156918E-002  0.972686774656095       0.970302624120031      -8.156545140160501E-003 -1.030228310405449E-002  3.199183140432333E-004  1.308256381994775E-002  0.983431735523318       0.980606949221523       0.982500805614676       0.979874704704885       0.980603261041278       0.980156801687562        1.00858636337265        1.00531440408381     
 -5.768439563088191E-003  9.669622733332074E-004   1.00184146631434        1.00108145019241       0.984505623721673        1.00394421123457        1.00359222720525       0.971548516806077       1.715781835471783E-002  0.981548270342246       0.982940425593513       1.103917840174145E-002  0.998367042264923       0.989266127411455       0.968973944117626      -3.687893660452858E-003
 -5.154352462140709E-003  0.985275228432583       0.995718318899848       1.531613034836183E-002  0.979199241553933       2.908529302631860E-003  1.743318608339977E-002  1.525651644489286E-002  0.973218059425082        1.00756089497765       0.978320773571361        1.00104437318141       0.999974789844839       0.978044963665383       0.997260147097864       1.338749912283389E-002
 -4.182437549189291E-003 -8.178538879939157E-003 -2.503070708392877E-003 -9.954456027676339E-003 -9.641111756441799E-003  3.376733081360087E-003  0.975345559346104       0.975600970532071       0.973023564932123       1.144646100999137E-002   1.00921149492702       0.970521797200069       0.968053837231278       7.034766513127630E-003  0.971414483015299       0.965565102264627     
  0.963325955488704       8.734963403002980E-003 -7.889613578147273E-003 -1.079895658997188E-002 -1.929687773049254E-003  1.972172279231277E-002  1.752083581100352E-002  0.996138422037740        1.00277349346910      -1.178621712020315E-002  0.982644224564123       0.979466946809885      -5.693389205779472E-004 -7.050751695569821E-003  1.513771555628894E-002   1.00168712707749     
 -1.045533062070435E-002 -1.279503142701381E-002  0.977388057843712       0.976908306067746       9.316549779486528E-003  9.932527544003976E-003  0.987308163695058        1.01068372368290       0.990208983638800       1.564726669430475E-002  2.296399505010335E-003  0.969205321142177       0.966711421219253       0.964075073645900       0.961013987417453       1.762207781326494E-002
  1.957894811453987E-004  0.970319013969610       1.376209665212338E-002  1.947456102458111E-002 -1.216088994685769E-002  0.993108458427034       0.994510971376826       0.997251717890252       6.977707951437557E-003 -6.503399060228350E-003   1.00589311243169        1.00585765811941       0.967479568649600      -5.509248981200751E-003 -4.890785203035580E-003  4.513192996449864E-003
  0.970591051587549       1.260714236683932E-002  0.998900046855762        1.00059180938316       2.211436303137029E-002  1.994373399964734E-002  1.760242018837184E-002 -3.692164950057529E-003  2.190060647720340E-002  0.974758252067506       0.971939104535808      -1.456973292157335E-002  0.987682991434683      -1.038540519550244E-002   1.01031917877696       1.571202899152348E-002
  9.149338070172167E-003  2.005258131277568E-002   1.00449443160804       0.968013627722781       0.965433234199656       0.995886475419433       0.962466396334312       2.451996582092670E-002  6.046825814954025E-003  2.244046776808938E-002   1.00848892537478       6.861504899306861E-003  4.161658136232919E-003  3.847200872265973E-003  1.803111594930321E-002  3.193357633148236E-003
 -8.631980860892877E-003  0.990183163977850       0.985193956699803       0.983177748901490       0.985592917633227       0.987630316309803       0.994834856099708       1.502837311490282E-002 -1.549062212937486E-003  0.966079623164658       2.066606333144608E-002  0.969289894703171       0.990697556471694       0.989713182017032       0.987360031527150       0.985151806805482     
  0.988044212301695       0.988982005377613      -1.221835225592743E-002 -3.118930051985850E-003   1.00007489396601       0.984311450161568       0.968173799339792       0.997774517643883       0.996555831191142       2.688208095645932E-002   1.00796420198561        1.00619448087203        1.00972901807444        1.01142407373298      -1.285299566153906E-002 -1.545625951395729E-002
 -8.260665913184046E-003  2.024024740268381E-002  1.771893406784945E-002  1.495868754771818E-002 -9.864984947570498E-003  0.990505684388577        1.00883740208146       6.071155514751773E-003  0.980315221177759      -6.958844288362050E-003  0.992182677857301       0.992888856002998       0.994044292766721       1.660703278966690E-003  0.972142434078616       1.290013582731123E-002
  1.248012618722420E-002  0.980776948286971       0.970526169108098       0.959154618086256       0.962949086979767       0.960069531706045        1.00399085503846       0.964592524141570       0.967631637495990       0.973506939607781       0.971831341368396       0.975487966647498       0.976402485449284       0.974791134687810       0.973161787207337       0.957091230246085     
  0.953817027974185      -5.063144707027288E-003 -1.262205814033986E-002   1.01192664253231        1.01313203060441       0.982258943398770       0.979694317064162       6.453385923495615E-003  5.957400192137249E-004  1.037384770399619E-003  7.244050513612751E-004 -6.132689101469691E-003   1.01121536222024        1.00691153726154      -1.020244886650107E-002  2.946419996659607E-002
  2.659857760819110E-002 -1.494254418091515E-002  9.585379717602186E-003 -1.530864965162822E-002 -1.824022503173591E-002  0.991862375467172       0.989961400958133      -1.244582402821762E-002 -1.518490165819721E-002  2.677135132261148E-002   1.01082759954861       1.224101248148345E-002  0.986348591846179       0.986937539810635        1.00289659149617        1.00889321536293     
   1.01176202827848       0.987561080662853       0.961766072881349       0.958823853537573       0.955598631746801       0.952072793273545      -2.699351319223713E-003  0.977738054013216       0.984784513064005       0.984199727386967       0.982489811632436        1.00903629345336       0.977370265180849      -1.210122270580667E-002  0.983958701534079       0.966953042769031     
  0.968869560391206       0.970219612442281       0.971391446351488        1.01092724336777        1.01150288312721      -8.578362488060490E-003 -1.787086257158780E-002  0.963359557641078       0.973750669867748       0.970830004761899       6.617558841788038E-003   1.00703905956712      -4.215401241189519E-003 -7.862887302429502E-003   1.01172875976132        1.00404934146635     
   1.00192916088622        1.01271733424346       2.309659740049053E-002  2.944667662209206E-002  2.673235182880776E-002 -9.238770248532906E-003  2.255054017127668E-002  2.434407473459873E-002  2.346562086035778E-002  0.978007712682765       0.976582786277042       3.617759058622083E-003  2.885494652824563E-003  0.998943233296886       9.607122614924793E-003   1.01380306373142     
  0.960828312902536       0.987523485237272       0.993248879362725       0.995100776094168       0.957578430783537      -1.187762018469533E-002 -1.506172562042262E-002  0.964463023170745       0.980092594340360      -1.506492093586202E-002  0.981159864508314       0.984374819494280       0.990744047920497        1.00633487405666       0.972844234674854       0.969017741614823     
  0.965954674099987       0.963670956645975       0.967639520910982        1.01317315132661      -7.368241252261559E-003 -1.089644720680286E-002  1.203034209228863E-002  2.470419248440929E-002  2.063908073225586E-002  1.784884968515416E-002  3.223818224886435E-002  2.977878493980322E-002  2.832393337638472E-002   1.00488668183231       1.487686847591476E-002 -1.646131251314482E-003
 -1.633328609548569E-003   1.01401074558441        1.01632007528179      -1.518460049180376E-002  0.954468652112940       0.951350681801810       3.237168867964283E-002  3.009268222803493E-002  2.784162281099274E-002 -1.243698313816653E-002   1.01368594678280        1.01738007553706       0.975278248841375       0.969837395653289      -5.298775621577568E-003  9.326239266684416E-003
  6.807203729107557E-003 -1.825954163904838E-002   1.01393149732424        1.01502959872552       2.478839364598012E-002  2.138620183247667E-002  0.965772185483939       0.967292981383279       0.968789401597925       0.968976418683406       0.997659168883344        1.00539539339550        1.00812716366007        1.00393204244889      -1.039599256947831E-002 -1.291600116512887E-002
 -1.508246244717031E-002  0.948164533073420      -1.066329741612204E-002 -1.406981319551382E-002  0.975182499900574       0.955958192513974        1.00889623196785        1.01173581688069       0.981002336054362      -1.398039047817808E-002  0.991110044092835      -1.764007316285974E-002 -2.092298684327530E-002  3.528760714603758E-002  3.310891045588558E-002  3.097327782274918E-002
  2.900142955133640E-002  0.972239603227789       0.975040299337173        1.00085439475590       0.999610552856165       2.398862509209734E-002   1.00705110522399       4.958221011610262E-004  6.418219766295452E-003  3.567359898211052E-003  0.966554419610574       0.968936050584163       0.978195971052833       2.455810872048305E-002  1.842285445052150E-002  1.577074984016657E-002
  0.999622122291430        1.00216130411801       0.998705800245553        1.00581858516097        1.01448872684339        1.01469158334290       1.284008670641954E-002   1.00341804820784       3.515806516972005E-002  3.225197019472066E-002  0.952904039733315       0.949644509920405        1.00524966543290       0.946073001330295       3.821981285050653E-002  3.598393250900185E-002
  3.386675463120869E-002   1.00887957477610       0.960710081489736       0.957221234541449       1.891681799123240E-002  0.962342427967669       0.984826414411888       0.976852238525828      -1.667204796512173E-002  0.965457242867749       2.099518351439216E-002  1.794837871823897E-002  0.964052189069002       0.966046678034498       3.535190243565187E-004 -6.843164628839415E-003
 -1.387541746638290E-002  9.848036469136429E-003  0.963752112136279       0.961551105803645       0.967879145883993      -1.749554495303842E-002  9.030097309191826E-003  0.954422736052790       1.475873799537413E-002  2.220356578774194E-002  2.561769516575416E-002 -1.237304869607592E-002 -1.530967020059287E-002 -1.375511119714813E-002 -1.707805787946617E-002 -1.748210877272636E-002
  0.954439464673557       0.958617366011789      -2.153724286670548E-002  4.125499049327155E-002  3.884601275096111E-002  3.649951347934565E-002  3.471197626750346E-002  6.807871006235029E-003   1.01226237178827        1.01683622183804        1.01878852570103        1.00961570909986        1.01652390302135       0.971627903205543       0.975025767220844       0.960417179005320     
 -1.997531366213908E-003  3.831968598865700E-002  3.553168797408171E-002  3.248245270537421E-002  0.951567984920545       0.947794417486106       2.440073400836678E-002  0.996588632659662       4.274756864827671E-003  3.949527286223719E-003 -1.792375198500623E-002 -1.573481259743871E-002 -1.760360423351596E-002  0.962402736875966       0.958503485501763       0.977945173147326     
  6.313343077163835E-003  4.185582647737942E-003  1.313605884822345E-002  1.173222526834383E-002  0.943241478128621       0.948510977457205      -1.824583573231579E-002 -1.815617426587025E-002 -1.749305704761442E-002 -2.127978762559435E-002  0.964720292280814       4.444793947581406E-002  4.199026052519014E-002  3.905297401070040E-002  1.955167361620699E-002  0.954177813397787     
  0.957591159979245       0.959759401210019       0.950647683062750       0.956331621380362       0.952781022777416       0.949176411709039       8.354981576352716E-003 -1.227171312186410E-002  0.997621224589001       0.974194649107672       0.972983045809621      -2.025855280383349E-002 -2.022234251558060E-002  0.970635511485014       1.613396412925583E-002  1.364998275373613E-003
  0.981315264669746       0.984359467761284       1.661787680714034E-002  2.125098514918871E-002  1.803562985739398E-002  1.465149976203445E-002  4.158535618949261E-002  3.892119744790302E-002  0.978648327596147       0.973451879678070       9.992560602550020E-003  6.686892522259302E-003  0.945070572214542       0.941580995612397       8.901902258248160E-004  1.133835454380753E-002
   1.01407437241111       0.960617729093335       0.956490133508976      -1.921510335480345E-002 -2.145262128857539E-002  0.937992774613397       0.934353698626998       2.313960369804944E-002  0.947119939475085       3.604151340944403E-002  3.283590630889596E-002  2.692514950070174E-002  4.776477908137956E-002  4.536973537116976E-002  4.291753685836641E-002  4.084751709559378E-002
 -1.058741795320734E-004  0.987563259414084       0.990791850778595       0.955011371634059       3.682825639135303E-003 -2.011311003233450E-003   1.01407299548961       2.473414695389827E-002  4.489509657877026E-002  4.227325571914811E-002  3.973820722844160E-002  2.029826290185424E-002  7.528898389085601E-003  1.346413918395376E-002  0.943616290643449       0.940036058872168     
  0.942269007814150       0.987530461224489       0.993983124206447       0.994056127810824       0.945316849631070      -2.272588671478505E-003  0.958609567604526       0.951275431253729       0.947512455756464       0.988506524832142       0.992195905083062       0.938176188654702        1.01063118311548       0.990803141776088       0.934377938401735       0.956509505998097     
  0.954499660939827       0.952353803871088       0.971533414535050       0.945667390608164       0.957455130475041       1.011437887208677E-002  6.512353841237536E-003   1.01637148278294        1.01495019678579        1.01638340356638        1.01861729839571       7.723040828805708E-004 -1.458428606228304E-003  1.099718608144330E-002  4.828278869287074E-002  4.550339587129931E-002
  4.294116645432901E-002  4.145070775771026E-002  0.950154826116706       0.946039977302218       0.930373263770704       2.152774085770245E-002  1.817365722713542E-002  2.723734149969421E-002  0.989450412902202       0.978184428355233       0.982062552821625       0.985798469138526       0.974897145836974       0.974888362840147       5.118693909686401E-002  4.875374048168686E-002
  4.629039943463627E-002  4.391760074386819E-002  4.083936833526414E-002  0.953536516595925       0.955938252460142       1.464857858793014E-002  1.716964734334380E-002  0.961477538719979       0.993124450368533       0.964001730150232       0.959989136846932       0.966554157359601       0.939792082522543       0.997992481791704        1.00099088232735       0.994197640908395     
  0.942229346308498       0.938547518402820        1.00187533482423       0.948524208972060       1.382619678622036E-002   1.01755399597383       2.886859707712473E-002  3.103342795387814E-003  0.936292918582622       0.952469164030691        1.00030773039176        1.00304494112093        1.00617372461306       0.967296596416305       0.944644730412010       0.949566553930781     
  0.945018223132863       6.972980510012646E-003  5.182603178023253E-002  4.889869010673180E-002  4.568504503028020E-002 -8.969818529454315E-003 -1.207040768862274E-002 -1.547862360762037E-002 -5.240198740458574E-003 -7.600082609842140E-003 -3.274942890938115E-003  0.987397879510321       0.979335629332658       0.999331854808662       0.944328481031576       0.936384994732542     
  0.932367631940019       2.527698123422690E-002  2.922518298865177E-002  2.424350500950789E-002  0.996885473476865       0.998232859226769       0.990773645830634        1.01789852944906        1.01998338286886       0.990267615932019       0.995788447703772       0.996912820409924       0.994045186038478       0.984178160136737       0.962941594441979       1.026472331382423E-002
  6.433668165441662E-003  0.934511380179913       0.950558735444214       0.948224185774082       3.186851847416278E-002  3.077720561564563E-002  2.880345110355510E-002  0.941804106417831       0.947154287735130       0.943739157583153       5.473771155145132E-002  5.222776366679510E-002  4.963127586653349E-002  0.983138218594933       0.986693203051370       0.987193539578071     