 VARIABLES = "X" "Y" "RO" "U" "V" "P" "M"
 ZONE T="  0.000000000000000E+000 " N=        9944  E=       19548
 ZONETYPE=FETRIANGLE DATAPACKING=BLOCK
 VARLOCATION=([3-7]=CELLCENTERED)
  -19.9782054645671       -16.7460447536127       -13.5432470514743       -10.4462771124608       -7.39483127129757       -4.39431260318683       -1.43672854734527        1.47853524247441        4.40194279230921        7.38347804238703        10.4122197804982        13.5308676756442        16.7310607632789        20.0189460056259        20.0156650185539        20.0123451374732     
   20.0090067226427        20.0056742799471        20.0022854763303        19.9988742323503        19.9954939648514        19.9920871178897        19.9886881104951        19.9853470049941        19.9820070605281        19.9783478910574        16.7317203104092        13.4557822172063        10.1645634122701        6.87452312340184        3.53259687976399       0.170578499054329     
  -3.16443525887912       -6.48474521199279       -9.79114624567630       -13.0836966857758       -16.3754018560739       -20.0188035791356       -20.0155069002833       -20.0121812769038       -20.0088400757232       -20.0054989473046       -20.0021446450312       -19.9987763328347       -19.9953939522161       -19.9920253568386       -19.9886729196427       -19.9853365630757     
  -19.9819979716434       0.999732247735553       0.998215331633123       0.996702818750971       0.995200534796537       0.993653671538991       0.992045889543251       0.990372340117541       0.988637500965553       0.986841254264766       0.984981269892804       0.983043542716210       0.981036612288751       0.978944285832200       0.976779241562922       0.974537620611286     
  0.972212011983094       0.969799862359707       0.967300347961607       0.964711147957691       0.962032621095567       0.959259784536016       0.956384825677773       0.953396624209285       0.950285758932107       0.947080952592898       0.943760526714464       0.940291901890349       0.936717460208813       0.933025075097777       0.929193268240712       0.925187105658560     
  0.921037224087522       0.916738357621942       0.912276604544555       0.907642973871045       0.902831000448057       0.897834142841716       0.892639802993761       0.887235201576007       0.881612655793326       0.875764379272528       0.869691492664480       0.863386745813298       0.856842169654807       0.850047728387077       0.842994537814137       0.835674090297217     
  0.828079985565254       0.820203774164650       0.812037168362657       0.803571763896535       0.794798697194673       0.785710297111455       0.776297640580978       0.766436551623125       0.756215941543218       0.745624378966603       0.734651182763857       0.723289330163607       0.711526437352712       0.699349843293305       0.686752269339752       0.673721930809464     
  0.660244885807804       0.646313714583116       0.631914890247167       0.617031686146486       0.601652942065123       0.585757975009586       0.569334250130562       0.552366231250818       0.535443130289475       0.518482765162839       0.501452848162029       0.484353434409029       0.467184109557794       0.449295062257674       0.432002377778953       0.415304519634519     
  0.399199815716306       0.383672335602263       0.368637377129300       0.354076602005210       0.339985963379340       0.326374324245438       0.313226693117611       0.300544144950173       0.288327644297229       0.276558914765175       0.265212912957436       0.254242143878852       0.243633992220570       0.233376066896124       0.223461113407377       0.213881038238560     
  0.204624158663918       0.195679231236686       0.187041658249933       0.178695174625797       0.170630088077540       0.162829376405734       0.155286205459808       0.147994184780292       0.140947216399416       0.134139087390034       0.127562901589057       0.121213090638618       0.115084447865658       0.109171667607488       0.103470217842823       9.797572922397750E-002
  9.268402179440285E-002  8.759161962685143E-002  8.269480142469511E-002  7.798981788091801E-002  7.355490919106866E-002  6.928294860826432E-002  6.517561619561385E-002  6.123117425509120E-002  5.744976340919199E-002  5.380932025732323E-002  5.032151987960384E-002  4.698427432633502E-002  4.377982750127241E-002  4.067892294791669E-002  3.767842918741876E-002  3.475544020174959E-002
  3.191027204912942E-002  2.914797378229135E-002  2.647135204332036E-002  2.388433956922700E-002  2.139303243751419E-002  1.900504795340242E-002  1.683937889466748E-002  1.475373487105321E-002  1.276781142035894E-002  1.090052503349883E-002  9.176723740241689E-003  7.531266623868621E-003  5.927323869940295E-003  4.467901603563578E-003  3.143672919156439E-003  1.992195447950961E-003
  1.073236969555004E-003  4.550186814249642E-004  1.537623080122549E-004  8.925075481569511E-005  3.396022104343939E-004  9.479580971755951E-004  1.866515754929083E-003  3.006589128594820E-003  4.297198942608102E-003  5.683915322764020E-003  7.361849656492962E-003  9.128528538326977E-003  1.099906806040639E-002  1.288786798548889E-002  1.482422540834912E-002  1.685570068907897E-002
  1.903262884515868E-002  2.132159163718928E-002  2.373241739628640E-002  2.620582358311904E-002  2.874927800825132E-002  3.140658478035529E-002  3.421716850381874E-002  3.717854806834049E-002  4.028032755833422E-002  4.351057247925208E-002  4.685848478277392E-002  5.031224602918276E-002  5.386846560629675E-002  5.752700393419967E-002  6.128053846903322E-002  6.548865037133418E-002
  6.984243745742341E-002  7.433934600485298E-002  7.897626715685899E-002  8.368462913438586E-002  8.853350655364983E-002  9.354915702727332E-002  9.872952210718559E-002  0.104076719995490       0.109581058440955       0.115261980838549       0.121160472888447       0.127326255904127       0.133772379477532       0.140502078357658       0.147511919198193       0.154803175569661     
  0.162378992312341       0.170240436461166       0.178391507394374       0.186835730903017       0.195577599918727       0.204802306769545       0.214368257460183       0.224281230705178       0.234550328267719       0.245183858149570       0.256188992631236       0.267576125516978       0.279356051143447       0.291536320707271       0.304127786613606       0.317142805852827     
  0.330588906370537       0.344476040316442       0.358817661703555       0.373614094412567       0.388876025765784       0.404609576816138       0.420800273756631       0.437458477537555       0.454526785409925       0.471996949156793       0.489542820909052       0.506957625155309       0.524239657577731       0.541391333485171       0.558416394985317       0.574996882772649     
  0.591109265147630       0.606733908032666       0.621869784652254       0.636519015223858       0.650645743040256       0.664261382555223       0.677381218988964       0.690023151312591       0.702207456634837       0.713985444676777       0.725398876297495       0.736455757847179       0.747164337629882       0.757526761157424       0.767551387491477       0.777246984755558     
  0.786622305564684       0.795599395055125       0.804247277975880       0.812570744506870       0.820575656853344       0.828266635433543       0.835647992075805       0.842726947262982       0.849566046166526       0.856195168806065       0.862617397594766       0.868836511197753       0.874856371793095       0.880680964212296       0.886313572972478       0.891757303121240     
  0.897015597941260       0.902092804176898       0.906996648932175       0.911731673265914       0.916302375299419       0.920519496883101       0.924620810356259       0.928604433991543       0.932473253038891       0.936212324455026       0.939818643052996       0.943298570638398       0.946644352943066       0.949859606217489       0.952959679413182       0.955920479513799     
  0.958748665505985       0.961500665373695       0.964173428707030       0.966765119601698       0.969274488104585       0.971700958749135       0.974045711026784       0.976309792695180       0.978496523562712       0.980609812847187       0.982601458876322       0.984538675636155       0.986406787291671       0.988210546994142       0.989953925087363       0.991638220550687     
  0.993258985878147       0.994817494464706       0.996316263297330       0.997811210246664      -1.130376815111116E-003 -9.200207036848914E-004 -1.086293029822842E-003  0.995978737530908       0.997419964068051       0.995972905241140       0.997202299552395      -2.555522709337029E-003 -4.435475785941243E-004  0.995638423443689       0.996417381152715      -2.094028454801737E-003
  0.994589330116109      -2.436000952451666E-003  0.994092307623843       0.992433910935952      -7.409474021281672E-004  0.992871067002889       0.993853428354477      -2.486909733215878E-003 -4.023389420247539E-003  0.994944520597466       0.995104791465481       0.998841974996975      -1.472762525038755E-003  3.217257573474538E-004  0.991123206424048       0.989355405366676     
  0.987583713102400       0.991967476917902       0.998149293397701       0.993427864338340       0.991216647750342       2.855662880750628E-005 -2.156263508968474E-003 -4.123669140768447E-003  0.992856046371306       0.997397338667954        1.00049152468577       0.998131523482505        1.00117425191117      -3.394691882397745E-003  1.361348692560996E-003  0.996524235698141     
  0.996938156184605       0.999493399846784       0.989486152953123       0.990139900261208       0.988291015571357       0.986379736694043       0.990946902351462       0.992725436872680       1.115481372763344E-003 -8.582989787891947E-004  3.755948979755902E-003   1.00227927287404       0.990472588794805      -5.467830561968221E-003  2.641599537189267E-003  0.990976265932008     
  0.987600372886359       0.988992204108075       2.353994154707175E-003 -4.194343996668777E-003  0.991718044559915       0.999909159472494       0.999353667710112       4.129016560982600E-003  0.989147500438193      -2.620182541585879E-003 -3.850121642223684E-003   1.00319083738498        1.00125272011667       0.994864888265587       0.998997518538806        1.00107112391908     
  0.993760497600075       7.503558252325070E-003 -2.608640640492605E-003  0.999624652173402       0.998766054674840       5.785487056675855E-003  0.985633238009427       0.983645573820669       0.991877500822502       0.998004684794186       0.986888719603198      -5.944377568358069E-003  0.988295408218732       9.185661526651137E-003 -5.564167044806873E-004  6.451133002713209E-004
 -5.431319750016590E-003  0.984287724751073        1.00346367148495       0.987163395584101       0.984960391467774       0.997824441350907       0.995792665418805      -1.528149531419508E-003   1.00405703425641        1.00593518883810        1.00179785908193       0.984740915026608       0.982490660457881        1.00088784838410       0.994189271349607       0.986103094138752     
 -4.827193425204520E-003  5.780298987495751E-003  1.645165919907019E-003  7.557667467608866E-003 -7.186678843800981E-003 -1.816484987931313E-003 -1.285961031009670E-004  3.013610814038507E-004  2.115571402860414E-003  0.994747552772892        1.00263025406248       0.995609315829677       0.988290239450542       0.992572168186725       0.981912077048678       0.979756063138379     
  0.982741080937546       3.841984463846532E-003 -5.659991840509450E-003 -7.541798370108638E-003  0.977607893047363       0.989703718651674       5.345773737991930E-003  0.986013389997856       0.990908082807171       0.993711194332275        1.00039151211562       0.999615564926694       3.200025999554080E-003   1.00539583694284        1.00436899743117       0.996592541271011     
  0.998545248979884       6.330688063295862E-003   1.00003709500644        1.00233908509489       1.097344790294906E-002   1.00293570815762        1.00689135575080        1.00462836391849        1.00722884932052       0.990099978791930       0.993209401838624       0.989025836456978       1.584209321326023E-003  7.109425228550563E-003  0.990044927548096       0.985937468242487     
  0.983283461707739       8.974446753708549E-003 -6.168798856206637E-003 -3.988965897459056E-003 -2.574392374316144E-003 -3.866005116098135E-003  0.991381252098762       0.992497757206839       0.980622322222385       0.978428506056843       0.976049562099330       1.092580254218240E-002  0.992034074735885       0.996037295065692       0.995014295502296       0.997088391500645     
  4.951314152971783E-003  1.287318108784953E-002  0.987633605886044       0.987326381322069        1.00325789523515       0.989324996510268       8.988573765390119E-003  0.987365341649577      -4.219090795388469E-003 -8.095172255170457E-003  0.981416098842916       0.980093709067996       1.297189658764083E-002  0.981885620516359       0.977597847711407      -6.184189168780496E-003
  0.985384971271026      -7.583453830293772E-003  1.101138812156065E-002  0.994571211840361      -3.085506843219595E-003  3.663121509088825E-003  0.975311315729957       1.090187691760322E-002 -6.242001322718427E-004  8.707713770191292E-004  1.486606490259211E-002 -9.636821269041790E-004  6.865906125838600E-003  0.978713255772648      -6.364731537761959E-003 -9.079295874991639E-003
  8.887391471066612E-003   1.00559934726801        1.00849317914549       0.979515821985609       0.977063931166749       0.973951393558372       0.984600051327976       0.982457265496752       0.993743946172580      -1.664507109963882E-003  1.281782276662879E-002 -9.862407522827542E-003  0.976680269350932       0.974309529621011       1.509174054336662E-002  4.550208423706149E-003
  8.745384376630349E-003  1.093915633427225E-002  0.972950811303998       0.970559637818583      -8.326477605945220E-003 -1.045673691306037E-002  3.285115472247970E-005  1.320602837746844E-002  0.983724075394550       0.980890868469148       0.982787749649763       0.980154164739898       0.980961001674290       0.980514561137685        1.00891174930415        1.00563449109816     
 -5.981695699020558E-003  1.002972809774813E-003   1.00215729994680        1.00139235220547       0.984794683025136        1.00428118778336        1.00393039177960       0.971808622557545       1.730269972999090E-002  0.981830099780654       0.983223903782106       1.115345710287975E-002  0.998675208590344       0.989565673844901       0.969227236173297      -3.690441131354339E-003
 -5.178011981027979E-003  0.985628621145821       0.996023314995323       1.545186087463381E-002  0.979475749186214       2.605306679440143E-003  1.698600465597261E-002  1.482470472791969E-002  0.973583186657432        1.00788982846084       0.978679964650545        1.00138469504806        1.00031701241843       0.978321383338594       0.997604652082199       1.351501360259031E-002
 -4.425857501222080E-003 -8.371944114535601E-003 -2.773617323985167E-003 -1.008549645673387E-002 -9.726815653795887E-003  3.437090221603881E-003  0.975709174617710       0.975871063393484       0.973286658759676       1.156610973663372E-002   1.00954155738349       0.970889088153944       0.968422788369980       6.676994478407651E-003  0.971780700045472       0.965935706949522     
  0.963697874454236       8.838371100900468E-003 -7.927150394256802E-003 -1.084907979940504E-002 -1.911200786855523E-003  1.925250447389730E-002  1.706702311820014E-002  0.996484159650501        1.00311347643297      -1.190767507941995E-002  0.982999767023650       0.979824976206126      -8.678575843078914E-004 -7.279101471930878E-003  1.469895697673820E-002   1.00202880500400     
 -1.063340365693129E-002 -1.295858405301558E-002  0.977661403840082       0.977177467029701       8.933167980800278E-003  9.534092169732257E-003  0.987601663740803        1.01101447264250       0.990506111105349       1.578519510790705E-002  1.981217020039109E-003  0.969572841759354       0.967080463920643       0.964445744364651       0.961386824276743       1.776936244758334E-002
  2.382884168515817E-004  0.970574902768714       1.389275939186929E-002  1.963135769540454E-002 -1.226428544872043E-002  0.993409982451572       0.994811130057150       0.997554982805761       6.607935197180727E-003 -6.520412264301751E-003   1.00622924106576        1.00619526837319       0.967727520157324      -5.763752088446620E-003 -4.887574954761235E-003  4.170159823205618E-003
  0.970957243868513       1.273355451877595E-002  0.999243763737648        1.00093491988272       2.162354130548415E-002  1.946797345025380E-002  1.714184314204715E-002 -3.973243567029887E-003  2.206905779524661E-002  0.975024255014192       0.972197839705596      -1.469263102870197E-002  0.987973068578945      -1.058450332701692E-002   1.01064635094165       1.585156279448533E-002
  9.257664707879018E-003  2.021178808345821E-002   1.00483398103016       0.968381224337863       0.965802124632549       0.996184770513665       0.962837185981424       2.400957526722004E-002  6.130748475327383E-003  2.194373396747677E-002   1.00882381167496       6.479305406234786E-003  3.805840743475798E-003  3.478120903646343E-003  1.818067844866678E-002  3.260594246706682E-003
 -8.872780754781651E-003  0.990476254057686       0.985480886997559       0.983459666774204       0.985878383491728       0.987917206300989       0.995181858924084       1.458269459816056E-002 -1.859500667609001E-003  0.966324764760883       2.082765899270881E-002  0.969656206572934       0.991047153603931       0.990063244174105       0.987711726285836       0.985505210635301     
  0.988395588745913       0.989333053187773      -1.229378278476205E-002 -3.095420878639575E-003   1.00038098026610       0.984591195112922       0.968425383977605       0.998119476621735       0.996902022044448       2.635382315622525E-002   1.00828354890983        1.00651124319340        1.01005094232371        1.01174814323028      -1.303915671004607E-002 -1.562970935041154E-002
 -8.470541974691539E-003  1.975821433037296E-002  1.725196378392042E-002  1.450657214292796E-002 -1.008219544451029E-002  0.990794699649156        1.00917365783528       6.161696145070198E-003  0.980592232736115      -7.223872298809178E-003  0.992480308202454       0.993184345545977       0.994335756432624       1.333053728026518E-003  0.972506838785228       1.248332629076291E-002
  1.205612547690421E-002  0.981050396768965       0.970890939085142       0.959527735503420       0.963183547942324       0.960295427544907        1.00430832130911       0.964831194913965       0.967998153164842       0.973869504608660       0.972194649029898       0.975849214933504       0.976762667196486       0.975152337508920       0.973523963706677       0.957308066182218     
  0.954023788575206      -5.354099252847168E-003 -1.282757817070880E-002   1.01225535915730        1.01346217337647       0.982614299522899       0.980051742419644       6.550092182038060E-003  6.487458167923983E-004  6.953462676376932E-004  3.676923934825380E-004 -6.123677584330886E-003   1.01154943687589        1.00724948314167      -1.045475745368893E-002  2.891317079910191E-002
  2.606963406641802E-002 -1.503657399893142E-002  9.177113002892411E-003 -1.550388098720075E-002 -1.842560836479819E-002  0.992211452472581       0.990311995376871      -1.258532380852351E-002 -1.533381905336248E-002  2.695872959096912E-002   1.01114613962446       1.181020434192114E-002  0.986701431917432       0.987290057473127        1.00320510995694        1.00920917824865     
   1.01207722302651       0.987913224798281       0.961996735207713       0.959045769312810       0.955810940397177       0.952274392382477      -3.025692977661896E-003  0.978005425963715       0.985138229834828       0.984553752782881       0.982844814846066        1.00937347321167       0.977729646313784      -1.233040507823446E-002  0.984312928503565       0.967320565838932     
  0.969234651019020       0.970583494858022       0.971754333573730        1.01125957665252        1.01183812759271      -8.852908710996614E-003 -1.798228940609995E-002  0.963593931951473       0.974012046221335       0.971084232879382       6.223596224167500E-003   1.00735226821025      -4.187636960244420E-003 -7.873592732469977E-003   1.01206501084042        1.00436278657281     
   1.00223307781474        1.01303844714089       2.259376263823109E-002  2.964524218440800E-002  2.691774866991772E-002 -9.243543135111457E-003  2.272105191837656E-002  2.452271462574582E-002  2.363834302050911E-002  0.978272729065837       0.976942649632024       3.236317942250899E-003  2.961861764646941E-003  0.999244448306483       9.719194989265267E-003   1.01413505521189     
  0.961055357509700       0.987805222959917       0.993597328143546       0.995448414750813       0.957953491296252      -1.213891743000739E-002 -1.513775331774055E-002  0.964831548715274       0.980449528453165      -1.527677886196162E-002  0.981429314271151       0.984648033129910       0.991027541477922        1.00667393947452       0.973101738871635       0.969268707156691     
  0.966196444478401       0.963904116031445       0.967885061920989        1.01349884625994      -7.353538716058442E-003 -1.092000472345623E-002  1.159311493174970E-002  2.419179964558923E-002  2.015077369967748E-002  1.737517874842639E-002  3.166678955104502E-002  2.922267189223735E-002  2.777620083983314E-002   1.00519305385583       1.441785850511749E-002 -1.607105296044365E-003
 -1.584847785640207E-003   1.01433392791458        1.01664418497884      -1.541422693967355E-002  0.954845322232450       0.951728863118753       3.258060549122622E-002  3.029196518078018E-002  2.803106525602320E-002 -1.245422917628817E-002   1.01401953352638        1.01771134773069       0.975541213133743       0.970086648937416      -5.267852263482481E-003  8.909950555569937E-003
  6.908054198460523E-003 -1.841757592507026E-002   1.01424900133443        1.01534381700129       2.496697976506406E-002  2.155002258778950E-002  0.966139015223464       0.967658359479521       0.969153723946516       0.969340253252931       0.997954933460994        1.00570558310809        1.00843650807136        1.00423365607239      -1.067980634582427E-002 -1.316068371944645E-002
 -1.533106444959870E-002  0.948544274867193      -1.066323488325912E-002 -1.408086787843471E-002  0.975443276908520       0.956333239915869        1.00923430450848        1.01207282592321       0.981358685979815      -1.401549710725536E-002  0.991460207441931      -1.772547568106861E-002 -2.102376337525920E-002  3.550538898161772E-002  3.331774590101622E-002  3.117379628907807E-002
  2.919433014422343E-002  0.972492655979219       0.975297612803596        1.00115343758547       0.999904083465641       2.347712149161410E-002   1.00735451718980       1.273378408232258E-004  6.014196848468340E-003  3.173988026353924E-003  0.966793750622748       0.969179703087047       0.978457810275357       2.473396756338867E-002  1.857466502498348E-002  1.591183420656579E-002
  0.999966365948714        1.00250409966924       0.999051287868077        1.00611836976470        1.01482301616567        1.01502695677596       1.296837428134933E-002   1.00375939207834       3.456524452199734E-002  3.167845039854104E-002  0.953280528643928       0.950022578048980        1.00559085337678       0.946452781917409       3.844571533697981E-002  3.620074055873116E-002
  3.407551374701617E-002   1.00917972153852       0.961081230814382       0.957594730663842       1.907068316087948E-002  0.962711486015987       0.985180324269169       0.977211725968449      -1.673874303920095E-002  0.965691400417085       2.049885962509452E-002  1.746673386816568E-002  0.964419446568727       0.966412355062008      -2.626551464515931E-005 -7.142606688466553E-003
 -1.414809839529979E-002  9.963661962420076E-003  0.963983267200832       0.961775623176588       0.968116568261478      -1.763113086463344E-002  8.607404774725087E-003  0.954797879341426       1.429147882318413E-002  2.237006088942154E-002  2.579756487770598E-002 -1.241514357099273E-002 -1.536139911243346E-002 -1.381577920913763E-002 -1.712330596904891E-002 -1.769680483091196E-002
  0.954813535121780       0.958988810153390      -2.170824111838847E-002  4.148911429086065E-002  3.907020287583482E-002  3.671565244856053E-002  3.492090613094540E-002  6.912326435993587E-003   1.01257318523089        1.01715243621199        1.01910193528636        1.00992898400080        1.01683365222037       0.971875479924196       0.975278635537380       0.960786632197980     
 -2.345317821765908E-003  3.770477114257541E-002  3.493554602523181E-002  3.190649595708506E-002  0.951944234714041       0.948172246326623       2.387851481642910E-002  0.996879350150774       4.364547920956291E-003  4.041126986161951E-003 -1.798126556598402E-002 -1.576306042914436E-002 -1.762539677359881E-002  0.962770469948326       0.958873358490281       0.978304395179460     
  5.901749024898337E-003  3.777072963397849E-003  1.326678556528521E-002  1.128812659197900E-002  0.943621428157658       0.948700291185338      -1.847602161539954E-002 -1.841469247664944E-002 -1.769640998186735E-002 -2.148155726815331E-002  0.965086414621948       4.469023650641398E-002  4.222333944657072E-002  3.927554037882056E-002  1.970777947806196E-002  0.954385164620774     
  0.957808664039701       0.959981764609149       0.950843828121180       0.956544320282281       0.952983019723680       0.949367248878882       7.926324281665138E-003 -1.226946682927335E-002  0.997907359600838       0.974556052684596       0.973344640949272      -2.031371325434041E-002 -2.029598261005810E-002  0.970875902125620       1.627667704455429E-002  1.443125549954095E-003
  0.981580477724955       0.984627674462982       1.676283502833488E-002  2.074556475574557E-002  1.754488532257979E-002  1.417451869689999E-002  4.094886537793056E-002  3.830195141641312E-002  0.978907854336697       0.973694802597310       1.011155717231005E-002  6.794768056431002E-003  0.945249067643063       0.941748611070488       9.718195677753953E-004  1.088550501164328E-002
   1.01441108411605       0.960985947972462       0.956860413462246      -1.925351334000371E-002 -2.148371983216116E-002  0.938148923427931       0.934498010553161       2.330914158917997E-002  0.947304793678572       3.544157209021390E-002  3.225748866384225E-002  2.710864546825620E-002  4.801454193723841E-002  4.561064590686415E-002  4.314999687307861E-002  4.107301153316663E-002
 -4.949772464533763E-004  0.987839189793240       0.991069786170074       0.955218804253365       3.776918698617234E-003 -1.948978868852019E-003   1.01437949559641       2.420461158303466E-002  4.423845725976364E-002  4.163285431879188E-002  3.911288253902159E-002  2.045687919202591E-002  7.091057917140493E-003  1.359775668825132E-002  0.943790650389447       0.940199603711547     
  0.942650804531184       0.987801100014430       0.994268248513282       0.994335402585090       0.945697807585624      -2.200994261907642E-003  0.958827727139356       0.951472007199664       0.947697921420959       0.988858410334812       0.992545795524534       0.938559575034758        1.01093639314485       0.991075801944219       0.934762626325456       0.956881197676790     
  0.954871643519151       0.952726051263004       0.971895327589867       0.945847679299250       0.957667481422418       1.023695135724576E-002  6.624244788508164E-003   1.01669148734907        1.01527759094599        1.01671250566919        1.01894308560008       8.580720117351420E-004 -1.376645831815496E-003  1.053387851970418E-002  4.760623136291597E-002  4.484538137502118E-002
  4.229708961897544E-002  4.081559765489515E-002  0.950530657882744       0.946417309617744       0.930759303176634       2.101357975805249E-002  1.767302471693999E-002  2.669390614619875E-002  0.989802101738021       0.978542588839154       0.982418190430036       0.986152024347207       0.975257394958452       0.975248081522281       5.144380129323348E-002  4.900165222321548E-002
  4.653011707686083E-002  4.414994676561418E-002  4.106071730925889E-002  0.953738304951077       0.956144581529348       1.416091683534285E-002  1.731728083290383E-002  0.961703583918478       0.993474279287418       0.964229318414423       0.960205904123136       0.966784520558113       0.940174091416629       0.998338894803394        1.00133592128793       0.994472096213441     
  0.942400249468416       0.938707018873921        1.00216603388986       0.948899628917041       1.396302008759037E-002   1.01785869966291       2.831365720952795E-002  3.200153258595069E-003  0.936444694474689       0.952842986562807        1.00059097690831        1.00334210623828        1.00646892781280       0.967660923763153       0.945021452596233       0.949758048721127     
  0.945197028410416       6.523962764314790E-003  5.112867178886075E-002  4.822074070692264E-002  4.502610266425092E-002 -9.274123174645016E-003 -1.236133599726432E-002 -1.576589046232315E-002 -5.567331755310418E-003 -7.927865253246912E-003 -3.629029604143839E-003  0.987663175594131       0.979692710711819       0.999678218272826       0.944505148730871       0.936767992821563     
  0.932751920526818       2.473985913129933E-002  2.866378027090342E-002  2.441582553347606E-002  0.997165219488403       0.998508825121719       0.991041059261377        1.01823140082393        1.02029964129670       0.990619172701613       0.996136341790270       0.997260874555870       0.994395039463115       0.984441408160556       0.963308167176747       1.039104754157434E-002
  6.549690992401268E-003  0.934658352205844       0.950932613232291       0.948598239579111       3.207006623601063E-002  3.097392645292607E-002  2.899131035866528E-002  0.942183047537197       0.947529473109424       0.944115258013302       5.500147933900638E-002  5.248261953008130E-002  4.987730696678232E-002  0.983493179795423       0.987046486311797       0.987546615633658     