 VARIABLES = "X" "Y" "RO" "U" "V" "P" "M"
 ZONE T="  0.000000000000000E+000 " N=        9944  E=       19548
 ZONETYPE=FETRIANGLE DATAPACKING=BLOCK
 VARLOCATION=([3-7]=CELLCENTERED)
  -19.9782054645671       -16.7460447536127       -13.5432470514743       -10.4462771124608       -7.39483127129757       -4.39431260318683       -1.43672854734527        1.47853524247441        4.40194279230921        7.38347804238703        10.4122197804982        13.5308676756442        16.7310607632789        20.0189460056259        20.0156650185539        20.0123451374732     
   20.0090067226427        20.0056742799471        20.0022854763303        19.9988742323503        19.9954939648514        19.9920871178897        19.9886881104951        19.9853470049941        19.9820070605281        19.9783478910574        16.7317203104092        13.4557822172063        10.1645634122701        6.87452312340184        3.53259687976399       0.170578499054329     
  -3.16443525887912       -6.48474521199279       -9.79114624567630       -13.0836966857758       -16.3754018560739       -20.0188035791356       -20.0155069002833       -20.0121812769038       -20.0088400757232       -20.0054989473046       -20.0021446450312       -19.9987763328347       -19.9953939522161       -19.9920253568386       -19.9886729196427       -19.9853365630757     
  -19.9819979716434       0.999783050526417       0.998266603612571       0.996754547432107       0.995252706261710       0.993706287842323       0.992098956510726       0.990425863796657       0.988691485065925       0.986895701495969       0.985036182550956       0.983098925454293       0.981092466539167       0.979000615667496       0.976836047050813       0.974594901736011     
  0.972269769341124       0.969858096105467       0.967359057522876       0.964770332396491       0.962092278694593       0.959319913809566       0.956445425803223       0.953457695446168       0.950347302200610       0.947142963882009       0.943823004721934       0.940354849027338       0.936780872378642       0.933088949216470       0.929257603034067       0.925251902676923     
  0.921102479819056       0.916804067636567       0.912342764050971       0.907709576764233       0.902898038659777       0.897901605950319       0.892707678278708       0.887303473475909       0.881681305017830       0.875833382394350       0.869760821301819       0.863456366941776       0.856912045438204       0.850117816114881       0.843064789805386       0.835744453980632     
  0.828150403702848       0.820274185280963       0.812107507263731       0.803641962333798       0.794868684657009       0.785780001796327       0.776366990437386       0.766505470175988       0.756284357864094       0.745692225690850       0.734718397734293       0.723355858375668       0.711592232445820       0.699414869381489       0.686816503248969       0.673785363684012     
  0.660307524833545       0.646375585124710       0.631976037075741       0.617092174706328       0.601712859858206       0.585817432011240       0.569393379411164       0.552425188584196       0.535502089864616       0.518541902782457       0.501512340087605       0.484413454370566       0.467244825710950       0.449356669380613       0.432064993060311       0.415368230445071     
  0.399264681415142       0.383738390933774       0.368704640606093       0.354145073663410       0.340055625807657       0.326445143594337       0.313298623223471       0.300617128009085       0.288401612851565       0.276633795070364       0.265288626962128       0.254318611844886       0.243711130975132       0.233453790688698       0.223539334409567       0.213959667349744     
  0.204703106277856       0.195758407674933       0.187120974046805       0.178774541081382       0.170709417310594       0.162908581372863       0.155365200054758       0.148072884021151       0.141025536592741       0.134216946246530       0.127640218244589       0.121289785800095       0.115160443910430       0.109246888622572       0.103544589769720       9.804917994571248E-002
  9.275648122823599E-002  8.766301993597563E-002  8.276507706856066E-002  7.805890569220170E-002  7.362277212045275E-002  6.934952594756030E-002  6.524085029554905E-002  6.129500979572312E-002  5.751214834019404E-002  5.387019669074968E-002  5.038083727731432E-002  4.704198457794528E-002  4.383587667517599E-002  4.073324229444066E-002  3.773094658820635E-002  3.480606605788030E-002
  3.195891087606368E-002  2.919452679472223E-002  2.651571505099079E-002  2.392640310477798E-002  2.143268311973786E-002  1.904216990517248E-002  1.687398956832825E-002  1.478569074249072E-002  1.279697613865357E-002  1.092677370239818E-002  9.199961707198258E-003  7.551258345089132E-003  5.943675737860533E-003  4.480355827447845E-003  3.151841012753385E-003  1.995633722687167E-003
  1.071527234776974E-003  4.479968790672729E-004  1.418313043240682E-004  7.231649119418537E-005  3.160895748850948E-004  9.178504163891097E-004  1.830011764777967E-003  2.964116427835144E-003  4.249209906829149E-003  5.630843646481737E-003  7.303377092914434E-003  9.064979661875040E-003  1.093063752011003E-002  1.281489936427063E-002  1.474692674635538E-002  1.677414449374755E-002
  1.894677891625526E-002  2.123147889143746E-002  2.363805221626746E-002  2.610731325822649E-002  2.864670512945907E-002  3.129995776165346E-002  3.410644072473003E-002  3.706368482173859E-002  4.016131511896819E-002  4.338741725332483E-002  4.673120926637414E-002  5.018088793063492E-002  5.373306650840039E-002  5.738760554244914E-002  6.113719030782026E-002  6.534104452721985E-002
  6.969060181305901E-002  7.418331476111070E-002  7.881608094643505E-002  8.352038983749342E-002  8.836525666953039E-002  9.337692238088001E-002  9.855333630104963E-002  0.103896621043888       0.109397097041960       0.115074199991676       0.120968896513662       0.127130888114529       0.133573230979472       0.140299173004127       0.147305297545284       0.154592891968275     
  0.162165113989712       0.170023044595817       0.178170695896467       0.186611606911109       0.195350283750920       0.204571873711561       0.214134855018476       0.224045023383163       0.234311497439272       0.244942603322687       0.255945532724632       0.267330699352534       0.279108918828973       0.291287765533929       0.303878116098626       0.316892353427258     
  0.330338033493653       0.344225138080380       0.358567152928404       0.373364435144445       0.388627707256231       0.404363127081540       0.420556255717601       0.437217492712371       0.454289459961460       0.471763939262858       0.489314716896020       0.506734947207228       0.524022902047479       0.541180973282664       0.558212879182911       0.574800492962714     
  0.590920219411209       0.606552362141412       0.621695841929876       0.636352730636744       0.650487105230709       0.664110341309656       0.677237691679692       0.689887028750984       0.702078608734477       0.713863743479956       0.725284194752871       0.736347952434102       0.747063251009585       0.757432220697880       0.767463211422608       0.777164984601778     
  0.786546288162280       0.795529109075758       0.804182509617865       0.812511278157068       0.820521277224425       0.828217128050247       0.835603144179493       0.842686550556788       0.849529932096030       0.856163188180837       0.862589404129768       0.868812362261700       0.874835928668577       0.880664092282628       0.886300141318304       0.891747184365336     
  0.897008668344985       0.902088944025199       0.906995744367112       0.911733614131912       0.916307054892274       0.920526696136883       0.924630453028065       0.928616442742104       0.932487552143898       0.936228829186952       0.939837266754513       0.943319230203296       0.946666960566561       0.949884076109945       0.952985934578402       0.955948429137011     
  0.958778222867894       0.961531775886094       0.964206035894635       0.966799165922762       0.969309915414920       0.971737708810178       0.974083726581537       0.976349017493218       0.978536903647254       0.980651296893801       0.982643971449780       0.984582177004874       0.986451230835916       0.988255889252169       0.990000125317271       0.991685239395405     
  0.993306782637304       0.994866029931069       0.996365500330567       0.997861138262018      -1.145094816078069E-003 -9.299808022194013E-004 -1.106245458110713E-003  0.996030782859556       0.997471688043298       0.996025116871458       0.997251377536782      -2.572857859478573E-003 -4.486469045493767E-004  0.995686910777363       0.996465740754276      -2.102283008807924E-003
  0.994641751428434      -2.448872902788376E-003  0.994140203071805       0.992481053956078      -7.672253660442187E-004  0.992923972406832       0.993906203731593      -2.509321212414941E-003 -4.039008599585768E-003  0.994992472139806       0.995152257716814       0.998891537311683      -1.476225018942308E-003  3.216101624280043E-004  0.991176563884977       0.989409203487151     
  0.987637951223056       0.992020694640449       0.998198162727569       0.993475167130087       0.991262929579872      -4.624362440946804E-006 -2.186297549194449E-003 -4.143084780735142E-003  0.992909150025687       0.997445453738281        1.00054131700510       0.998183265605256        1.00122464666401      -3.401350205992474E-003  1.366094060472641E-003  0.996571353947154     
  0.996990372475060       0.999544565893667       0.989531935077892       0.990193523653908       0.988345044732961       0.986434186960268       0.990993412867807       0.992771783330986       1.076445245827799E-003 -8.943872584928261E-004  3.705983534611899E-003   1.00232895272556       0.990517906513951      -5.485428913193931E-003  2.650936068209224E-003  0.991029756645164     
  0.987645179581417       0.989037327837903       2.309410423434058E-003 -4.218962923798674E-003  0.991771439915534       0.999960594314356       0.999402282313498       4.142662879856766E-003  0.989201329664894      -2.622104712746476E-003 -3.861447620110204E-003   1.00324089698594        1.00130177198294       0.994917561610028       0.999049309524529        1.00112253090720     
  0.993813492505112       7.524795622646903E-003 -2.642997242524342E-003  0.999673847605673       0.998813813353755       5.803188483227373E-003  0.985677077677921       0.983688430828915       0.991922874950946       0.998051474679501       0.986932895180817      -5.965537055714284E-003  0.988339843455556       9.209646490525164E-003 -5.550609250872897E-004  6.511686587747523E-004
 -5.441074142353276E-003  0.984342687513633        1.00351277929224       0.987217644778199       0.985015161261511       0.997876699863303       0.995845277808451      -1.525398491881660E-003   1.00410660999335        1.00598432603651        1.00184873192676       0.984784124410292       0.982532861635942        1.00093610074180       0.994235540186990       0.986146646236932     
 -4.832243346859453E-003  5.799618396469489E-003  1.598414115288744E-003  7.579923448226602E-003 -7.194771644251080E-003 -1.854645015542831E-003 -1.212791768184351E-004  2.600646319906902E-004  2.126165552594614E-003  0.994800450376572        1.00267883338022       0.995655410105488       0.988344252042204       0.992625458364247       0.981967667219782       0.979812117013020     
  0.982796439904128       3.857007169609010E-003 -5.674340716925268E-003 -7.559691866900704E-003  0.977664424916290       0.989748279545663       5.290501144073314E-003  0.986067969004862       0.990952654509073       0.993764407630560        1.00043886905122       0.999661990228258       3.147851943624313E-003   1.00544563836887        1.00441941503860       0.996645143003909     
  0.998597599875649       6.352211290928859E-003   1.00008890852983        1.00239046976450       1.100039955443871E-002   1.00298355356197        1.00694144597557        1.00467684808594        1.00727716477879       0.990153711955380       0.993254723974979       0.989069900253560       1.596055245083368E-003  7.048859456771622E-003  0.990098610978850       0.985992019437828     
  0.983338672544880       8.999118267124432E-003 -6.195288503478571E-003 -4.024156518067108E-003 -2.570325600599669E-003 -3.866424161974832E-003  0.991434877519651       0.992551300021380       0.980678096550961       0.978484719768866       0.976106289621508       1.085546627741097E-002  0.992078547782918       0.996090116246272       0.995067432501226       0.997134219024417     
  4.893756415205405E-003  1.279867655107675E-002  0.987677469124766       0.987369755059700        1.00330890320722       0.989378961517935       8.922934227899934E-003  0.987419637025223      -4.249858893048432E-003 -8.118407161009932E-003  0.981471687506976       0.980134725025290       1.300182608050845E-002  0.981927707364935       0.977637521891219      -6.215750024413200E-003
  0.985427857798694      -7.596300567657757E-003  1.103928785270460E-002  0.994616369232048      -3.125848132852970E-003  3.679585927504305E-003  0.975349852565351       1.082966742789043E-002 -6.677205790730986E-004  8.217616897557026E-004  1.478755733133387E-002 -9.551990512582146E-004  6.803067108723206E-003  0.978753223278519      -6.368109512501964E-003 -9.085481690343488E-003
  8.819533800808752E-003   1.00565005837715        1.00854352067844       0.979571712145961       0.977120295183491       0.974008555957375       0.984654946390027       0.982512597561619       0.993797412472533      -1.710318295312359E-003  1.274211200418521E-002 -9.878556978117146E-003  0.976719330292769       0.974347389178755       1.512441176049194E-002  4.490307376426336E-003
  8.771055158820526E-003  1.086549837882555E-002  0.972988103832716       0.970595654019943      -8.354599811385784E-003 -1.048176573357961E-002 -1.842440510273891E-005  1.323684844835932E-002  0.983766557639089       0.980931805145672       0.982829258495402       0.980194303032563       0.981016610737485       0.980570233378970        1.00896056665508        1.00568225195864     
 -6.018394124842906E-003  1.016021703880378E-003   1.00220423673221        1.00143837827013       0.984836597739378        1.00433228066589        1.00398175970765       0.971845209659412       1.733790700012630E-002  0.981870685131496       0.983264803557524       1.118242854277389E-002  0.998720708817217       0.989609521472986       0.969262583906724      -3.685139865480866E-003
 -5.176969117267114E-003  0.985683284317401       0.996068213436979       1.548521722109082E-002  0.979515357284621       2.550830395965480E-003  1.690328038918175E-002  1.474500024337690E-002  0.973640526383502        1.00793931884288       0.978735951509549        1.00143649193253        1.00036926302643       0.978360952403363       0.997657374287350       1.354671373317542E-002
 -4.468510001808381E-003 -8.404698628477513E-003 -2.821614752457798E-003 -1.010588435964173E-002 -9.738172397324349E-003  3.455087107062250E-003  0.975766091582439       0.975909479277799       0.973323799715919       1.159623005611205E-002   1.00959132035684       0.970947004949530       0.968481155621774       6.611808602702489E-003  0.971838388625473       0.965994530910779     
  0.963757063820793       8.865160591196167E-003 -7.928849225163218E-003 -1.085325588400947E-002 -1.901641652719568E-003  1.916547337720982E-002  1.698301701787103E-002  0.996537204006449        1.00316527447688      -1.192613196887182E-002  0.983054943686516       0.979880802447100      -9.213596094363291E-004 -7.318750576811511E-003  1.461790892764074E-002   1.00208100812458     
 -1.066310357649856E-002 -1.298538305758167E-002  0.977700424815826       0.977215737717729       8.862958535245463E-003  9.460948454946275E-003  0.987644406144220        1.01106441068836       0.990549536525074       1.581904803591273E-002  1.924414451413554E-003  0.969630885819720       0.967138925346977       0.964504650257446       0.961446326381869       1.780511352784273E-002
  2.527331748095350E-004  0.970610732487505       1.392514001075973E-002  1.966904100141244E-002 -1.227913338666641E-002  0.993454228143885       0.994855141190336       0.997599582558599       6.540414528382509E-003 -6.517978476082036E-003   1.00628020638621        1.00624660462092       0.967761907271528      -5.808560591684384E-003 -4.881055196692696E-003  4.107887275201875E-003
  0.971014991958821       1.276511109950443E-002  0.999296385251960        1.00098747376207       2.153228997283476E-002  1.937967753048354E-002  1.705652902838964E-002 -4.023286899973248E-003  2.210917024553979E-002  0.975061936770352       0.972234197625919      -1.471133432653197E-002  0.988015198336525      -1.061835617952036E-002   1.01069555073767       1.588578723671482E-002
  9.285516949122786E-003  2.025001667177974E-002   1.00488575727429       0.968439360392360       0.965860620061773       0.996228458195766       0.962896218872293       2.391450290462125E-002  6.153551254799153E-003  2.185133958336805E-002   1.00887459707153       6.409370222322203E-003  3.741081183449703E-003  3.410781076869442E-003  1.821694372241025E-002  3.280059328992342E-003
 -8.914860816062794E-003  0.990518952418974       0.985522428099972       0.983500291861871       0.985919666780940       0.987958763318321       0.995235234838344       1.450030949756613E-002 -1.915320651248217E-003  0.966358631534922       2.086642586815796E-002  0.969714062869183       0.991101033268165       0.990117170853384       0.987766014453908       0.985559947783195     
  0.988449865262088       0.989387313877289      -1.230302320960397E-002 -3.084783187488118E-003   1.00042611921504       0.984631438960069       0.968460414345807       0.998172416940454       0.996955289014386       2.625526351433034E-002   1.00833120701771        1.00655839888971        1.01009911231333        1.01179675220524      -1.307042739581331E-002 -1.565843848499016E-002
 -8.506541196532219E-003  1.966870541210418E-002  1.716541449823653E-002  1.442294417450012E-002 -1.011962325101957E-002  0.990836664005465        1.00922477266298       6.185911292600248E-003  0.980631947003441      -7.270727527994693E-003  0.992523843496973       0.993227499408116       0.994378193257470       1.273825460081786E-003  0.972564195305460       1.240657010438135E-002
  1.197798080971460E-002  0.981089476093192       0.970948467074211       0.959587444851821       0.963215480835587       0.960325810465251        1.00435558298328       0.964863897959591       0.968056130118342       0.973926467670292       0.972251874913389       0.975905757041402       0.976819025844210       0.975209020377726       0.973580968686690       0.957336810370459     
  0.954050711006876      -5.406058411710424E-003 -1.286267187618283E-002   1.01230489707281        1.01351202703436       0.982669529469756       0.980107506783549       6.575627013796472E-003  6.653635301223185E-004  6.333159527877245E-004  3.028029893100382E-004 -6.115935016912401E-003   1.01160011271090        1.00730094667106      -1.049908088302741E-002  2.881016847216045E-002
  2.597095450163543E-002 -1.504950165597189E-002  9.102069001681406E-003 -1.553691755236215E-002 -1.845667179022969E-002  0.992265278194034       0.990366219739662      -1.260735844402841E-002 -1.535768680182277E-002  2.700280897942958E-002   1.01119368123448       1.173074624303360E-002  0.986756098198194       0.987344698683222        1.00325071911208        1.00925621507754     
   1.01212414520908       0.987967866545611       0.962027986677717       0.959075436730065       0.955838868830997       0.952300382940789      -3.084608471698860E-003  0.978043384494192       0.985193127662293       0.984608694875730       0.982900014991475        1.00942481563472       0.977785863075384      -1.237016391202003E-002  0.984368013043736       0.967378741640518     
  0.969292340055810       0.970640940496340       0.971811579861044        1.01130985898567        1.01188907897029      -8.901613520641226E-003 -1.799865688298118E-002  0.963625860707970       0.974048896036945       0.971119780109333       6.151375161826405E-003   1.00739877638782      -4.176092666164801E-003 -7.869837355372930E-003   1.01211621232574        1.00440930978955     
   1.00227783752884        1.01308650068315       2.250018679443883E-002  2.969168029705091E-002  2.696147057807098E-002 -9.238544875281390E-003  2.276163557548011E-002  2.456495875599345E-002  2.367942438915878E-002  0.978310270514490       0.976999065527784       3.166571156961721E-003  2.983250625410806E-003  0.999288691598383       9.747874518518685E-003   1.01418532025033     
  0.961085958445200       0.987845851065138       0.993651085271960       0.995502089885322       0.958013666141624      -1.218499387632610E-002 -1.514706907496435E-002  0.964890047538043       0.980505254844981      -1.531309712876937E-002  0.981467677928241       0.984687099329622       0.991068509861863        1.00672566382137       0.973137891598099       0.969303651206149     
  0.966229716976188       0.963935832794721       0.967919028573830        1.01354779750248      -7.344600646447152E-003 -1.091879772890449E-002  1.151241679062205E-002  2.409634553160015E-002  2.006005259343757E-002  1.728733458685749E-002  3.155981591794950E-002  2.911868776658779E-002  2.767387182381519E-002   1.00523828469896       1.433289709224099E-002 -1.593312274912921E-003
 -1.569089136314845E-003   1.01438239553864        1.01669286520339      -1.545404777023670E-002  0.954905992387936       0.951790007625836       3.262923490894307E-002  3.033861484562763E-002  2.807569933180147E-002 -1.245170953463737E-002   1.01407015020546        1.01776154844238       0.975578361053636       0.970121299407335      -5.255626359687708E-003  8.833353474548507E-003
  6.934481475058154E-003 -1.844321844769304E-002   1.01429638350491        1.01539059330517       2.500924745736616E-002  2.158929961874764E-002  0.966197168191032       0.967716203128055       0.969211335723431       0.969397819763110       0.997998177203195        1.00575151940124        1.00848231047862        1.00427801023753      -1.073031420554955E-002 -1.320348579110976E-002
 -1.537462342697336E-002  0.948605917721260      -1.065721455015820E-002 -1.407705985105672E-002  0.975480034182635       0.956393520657288        1.00928587999424        1.01212422705017       0.981414382985973      -1.401657789853649E-002  0.991514423038769      -1.773664212540995E-002 -2.103795756840239E-002  3.555590060791651E-002  3.336641444850094E-002  3.122075716800872E-002
  2.923973290282376E-002  0.972528006484263       0.975333749868358        1.00119730077581       0.999946933600542       2.338186735272768E-002   1.00739922064824       6.015261826674276E-005  5.940019676612037E-003  3.101914538288360E-003  0.966826596466776       0.969213342045155       0.978494785394361       2.477575662372168E-002  1.861144271629516E-002  1.594643709449297E-002
   1.00001921043243        1.00255663025177       0.999104470941381        1.00616240149567        1.01487381849440        1.01507803218613       1.300039102019426E-002   1.00381158222182       3.445409333451049E-002  3.157107402445435E-002  0.953341248179512       0.950083790327936        1.00564307530042       0.946514532464490       3.849795690029504E-002  3.625110014581624E-002
  3.412421163718665E-002   1.00922383943768       0.961140478144573       0.957654646851446       1.910794147740427E-002  0.962770254899746       0.985235460839095       0.977268167917962      -1.674616505200449E-002  0.965723311089815       2.040658736399554E-002  1.737734555528038E-002  0.964477809031849       0.966470354156268      -9.565284545394904E-005 -7.196208353875209E-003
 -1.419639829667446E-002  9.993123796026210E-003  0.964014627036357       0.961805779703680       0.968149080441433      -1.765232148116192E-002  8.529568104006241E-003  0.954858262755919       1.420491811601225E-002  2.240994909111132E-002  2.584024455952715E-002 -1.241766540861116E-002 -1.536582013294632E-002 -1.382202422272194E-002 -1.712639641233643E-002 -1.773366724401976E-002
  0.954873723170886       0.959048251178536      -2.173640955588976E-002  4.154311398166746E-002  3.912213578121527E-002  3.676590858078834E-002  3.496968813058048E-002  6.939537091613844E-003   1.01261929806448        1.01719960643236        1.01914859827535        1.00997552732922        1.01687960817684       0.971909842188064       0.975313975763574       0.960845618947479     
 -2.408435337127520E-003  3.758931357259832E-002  3.482375927708409E-002  3.179865877951964E-002  0.952004982215456       0.948233513342426       2.378118403311508E-002  0.996921669925577       4.388712188662147E-003  4.065697755710659E-003 -1.798682414130391E-002 -1.576272451349151E-002 -1.762372075168304E-002  0.962829063693731       0.958932578281656       0.978360453458029     
  5.826097832585317E-003  3.702043551461626E-003  1.329936072383391E-002  1.120609781783198E-002  0.943683399743123       0.948724059201231      -1.851592966393991E-002 -1.846017230156398E-002 -1.773103346478649E-002 -2.151582606215706E-002  0.965144646249034       4.474599248956023E-002  4.227717672082974E-002  3.932719277849368E-002  1.974555957612536E-002  0.954412197914504     
  0.957837536476924       0.960011522137037       0.950868831869940       0.956572324999039       0.953009084187327       0.949391290333200       7.847332169792392E-003 -1.226296706635582E-002  0.997948851802066       0.974612921147008       0.973401625786182      -2.031876834678213E-002 -2.030475558692328E-002  0.970908964067810       1.631167680985851E-002  1.464937762664462E-003
  0.981618079918250       0.984665836778079       1.679835587234625E-002  2.065152907464394E-002  1.745373177751342E-002  1.408607030202836E-002  4.082920331925910E-002  3.818566014258445E-002  0.978944417330496       0.973728337113815       1.014176147474594E-002  6.822726296287475E-003  0.945270878069429       0.941768451738459       9.943914397744103E-004  1.080177785155307E-002
   1.01446249135022       0.961044791716853       0.956919864881365      -1.925519219350365E-002 -2.148388554600825E-002  0.938166686654627       0.934513627626293       2.334971806082224E-002  0.947327752510153       3.532905567227523E-002  3.214918237698548E-002  2.715213170258758E-002  4.807191008241784E-002  4.566616852967573E-002  4.320376359336586E-002  4.112533664680636E-002
 -5.661773170397537E-004  0.987878768797860       0.991109749408955       0.955245855841671       3.802043095970886E-003 -1.930343976326092E-003   1.01442482754378       2.410586322499754E-002  4.411486980666874E-002  4.151243949823551E-002  3.899541502892267E-002  2.049523765447344E-002  7.010284428655047E-003  1.363098154334096E-002  0.943811707980355       0.940218701010610     
  0.942713193456999       0.987839721985235       0.994309535878466       0.994375628675162       0.945759843831195      -2.180431610857162E-003  0.958856725376082       0.951497088918734       0.947720987447882       0.988913097079805       0.992600050549828       0.938622531079972        1.01098145679099       0.991114809547493       0.934826054058890       0.956940837506192     
  0.954931491571796       0.952786088248709       0.971952492163255       0.945869808324327       0.957695428051531       1.026794253262707E-002  6.653079162533003E-003   1.01673937149957        1.01532691021541        1.01676220828767        1.01899214877374       8.815206496778003E-004 -1.353959321998505E-003  1.044811982830930E-002  4.747876415526026E-002  4.472153449581887E-002
  4.217596466328982E-002  4.069623103662742E-002  0.950591431602992       0.946478593443564       0.930823232316261       2.091784878947980E-002  1.757995100146264E-002  2.659243228909420E-002  0.989856838417964       0.978598808875812       0.982473819360230       0.986207176629601       0.975314108639843       0.975304768239807       5.150270877383867E-002  4.905868627446248E-002
  4.658544099175137E-002  4.420373618487742E-002  4.111222390232135E-002  0.953764333142455       0.956171436110406       1.407039277825924E-002  1.735341197723090E-002  0.961734013598558       0.993528610321877       0.964260039979580       0.960234656910522       0.966815753999257       0.940236684598461       0.998392344923702        1.00138906685704       0.994511448350718     
  0.942420676231632       0.938725376086511        1.00220838306210       0.948960430081040       1.399696151331139E-002   1.01790373017717       2.820994454976469E-002  3.225876123513857E-003  0.936461657254343       0.952903273996739        1.00063195925045        1.00338564250915        1.00651212607717       0.967718761781260       0.945082695545765       0.949782207530312     
  0.945218882664480       6.441018014748821E-003  5.099715326403519E-002  4.809301038581050E-002  4.490208256304930E-002 -9.328659819113717E-003 -1.241322904476064E-002 -1.581703892627651E-002 -5.626375315713618E-003 -7.987014147990152E-003 -3.693365833832752E-003  0.987700829450129       0.979748763128261       0.999731718601562       0.944526618737410       0.936830951612655     
  0.932815360272630       2.463964177355349E-002  2.855882144831324E-002  2.445704048210068E-002  0.997205546045172       0.998548472136225       0.991079115367374        1.01828198229376        1.02034685917532       0.990673965239216       0.996190168284795       0.997314824611533       0.994449467981546       0.984478673843897       0.963366646184218       1.042286605009919E-002
  6.579432275244713E-003  0.934674433746876       0.950993037053505       0.948658815688600       3.211727609371293E-002  3.102016796259692E-002  2.903577875274276E-002  0.942244892438309       0.947590300536404       0.944176454221173       5.506189109661282E-002  5.254115886794823E-002  4.993399340339602E-002  0.983548733722298       0.987101658843147       0.987601816426064     