 VARIABLES = "X" "Y" "RO" "U" "V" "P" "M"
 ZONE T="  0.000000000000000E+000 " N=        9944  E=       19548
 ZONETYPE=FETRIANGLE DATAPACKING=BLOCK
 VARLOCATION=([3-7]=CELLCENTERED)
  -19.9782054645671       -16.7460447536127       -13.5432470514743       -10.4462771124608       -7.39483127129757       -4.39431260318683       -1.43672854734527        1.47853524247441        4.40194279230921        7.38347804238703        10.4122197804982        13.5308676756442        16.7310607632789        20.0189460056259        20.0156650185539        20.0123451374732     
   20.0090067226427        20.0056742799471        20.0022854763303        19.9988742323503        19.9954939648514        19.9920871178897        19.9886881104951        19.9853470049941        19.9820070605281        19.9783478910574        16.7317203104092        13.4557822172063        10.1645634122701        6.87452312340184        3.53259687976399       0.170578499054329     
  -3.16443525887912       -6.48474521199279       -9.79114624567630       -13.0836966857758       -16.3754018560739       -20.0188035791356       -20.0155069002833       -20.0121812769038       -20.0088400757232       -20.0054989473046       -20.0021446450312       -19.9987763328347       -19.9953939522161       -19.9920253568386       -19.9886729196427       -19.9853365630757     
  -19.9819979716434       0.999457311958128       0.997938532867083       0.996424224585036       0.994920217787886       0.993371642277473       0.991762145536090       0.990086879827642       0.988350333398076       0.986552393728107       0.984690733753690       0.982751341625289       0.980742770043852       0.978648818765752       0.976482181279896       0.974239000137764     
  0.971911863451488       0.969498220343176       0.966997250060222       0.964406633335156       0.961726731341186       0.958952560368850       0.956076305601447       0.953086843362123       0.949974750254896       0.946768760740763       0.943447188000565       0.939977442623635       0.936401921106832       0.932708493014821       0.928875675035870       0.924868527007026     
  0.920717696953173       0.916417921707779       0.911955302140749       0.907320852917586       0.902508116994362       0.897510563081975       0.892315604749381       0.886910476986238       0.881287514400237       0.875438950233945       0.869365926852244       0.863061216657751       0.856516874337806       0.849722888769944       0.842670400779078       0.835350927413088     
  0.827758091712126       0.819883466015434       0.811718781960775       0.803255651598939       0.794485224075196       0.785399836222287       0.775990568350038       0.766133288266339       0.755916865550228       0.745329854978710       0.734361553807029       0.723004907935896       0.711247496163188       0.699076611417127       0.686484917378019       0.673460564567414     
  0.659989538029969       0.646064333067921       0.631671332157271       0.616793711387231       0.601420204387918       0.585530019918320       0.569110508610789       0.552146019841992       0.535225574429007       0.518266986662127       0.501237961487009       0.484138554941534       0.466968367382454       0.449077535460043       0.431782319500129       0.415081324061321     
  0.398973011221404       0.383441571671488       0.368402392161953       0.353837226560561       0.339742114557750       0.326126000771129       0.312973958383886       0.300287123204726       0.288066511951280       0.276293885691521       0.264944229080471       0.253970062485301       0.243358792703543       0.233098046537190       0.223180584922797       0.213598325928652     
  0.204339594558445       0.195393152811058       0.186754407245722       0.178407093557094       0.170341520023317       0.162540663930233       0.154997690655693       0.147706208275156       0.140660116466313       0.133853199234512       0.127278556975248       0.120930617222095       0.114804168642058       0.108893900569914       0.103195275314997       9.770391737484901E-002
  9.241564014055051E-002  8.732696011739953E-002  8.243414808021961E-002  7.773344635148198E-002  7.330299967971828E-002  6.903576645310437E-002  6.493341579400494E-002  6.099420154241098E-002  5.721825216039016E-002  5.358352649089428E-002  5.010167205134674E-002  4.677059166007645E-002  4.357255176533836E-002  4.047835394924734E-002  3.748488119176770E-002  3.456929750360243E-002
  3.173194444879763E-002  2.897788664999446E-002  2.630995479153595E-002  2.373210538245962E-002  2.125045302564520E-002  1.887262796418893E-002  1.671708708673003E-002  1.464218962008988E-002  1.266760585596852E-002  1.081220898417501E-002  9.100725935517515E-003  7.468596677377226E-003  5.879651065474762E-003  4.436346785545813E-003  3.129908352418406E-003  1.998137766256273E-003
  1.100712766290909E-003  5.048015928125747E-004  2.242375674949770E-004  1.808960139574600E-004  4.592153894831204E-004  1.095687437106189E-003  2.041571781716642E-003  3.207189969615372E-003  4.521443500819696E-003  5.929972180824429E-003  7.631111434926036E-003  9.419624295184658E-003  1.131118079662439E-002  1.321953521509843E-002  1.517456489473706E-002  1.722441256908432E-002
  1.941988152082636E-002  2.172726307711950E-002  2.415647351802596E-002  2.664781034269128E-002  2.920884702407125E-002  3.188370792255932E-002  3.471205558120920E-002  3.769135704525703E-002  4.081112513007467E-002  4.405933761338555E-002  4.742512613529450E-002  5.089660567530293E-002  5.447036820918164E-002  5.814627304549695E-002  6.191696312040984E-002  6.614357203761008E-002
  7.051573868514624E-002  7.503088128024386E-002  7.968586239817654E-002  8.441184338450713E-002  8.927815635106906E-002  9.431113080821378E-002  9.950867388899046E-002  0.104872883985403       0.110394013053693       0.116091537278445       0.122006524549533       0.128188781395966       0.134651327757831       0.141397340155085       0.148423311483319       0.155730454103808     
  0.163321855541871       0.171198520762379       0.179364392259929       0.187822936677930       0.196578587889139       0.205816729699949       0.215395453375013       0.225320461297516       0.235600779199867       0.246244633350005       0.257259108536430       0.268654508608508       0.280441531641403       0.292627624119195       0.305223528809935       0.318241485350945     
  0.331688894991631       0.345575575826208       0.359914838249892       0.374706856369377       0.389962158501769       0.405686700045706       0.421865850949745       0.438509798733445       0.455561032933708       0.473011172218734       0.490534378253384       0.507924199895432       0.525179042083047       0.542301427885750       0.559295209183000       0.575843191188088     
  0.591922129359037       0.607512670621459       0.622614023735923       0.637228525383310       0.651320616166779       0.664901882788426       0.677987753336759       0.690596243069450       0.702747719778652       0.714493480099079       0.725875277607884       0.736901189837927       0.747579524373331       0.757912492696151       0.767908492197177       0.777576318460716     
  0.786924742552237       0.795876068476526       0.804499149752231       0.812798782262433       0.820780824383222       0.828449890616805       0.835810282946973       0.842869199844549       0.849689005695054       0.856299491354666       0.862703724305724       0.868905465130138       0.874908557028490       0.880716965345777       0.886333957329475       0.891762621898669     
  0.897006386230094       0.902069579664994       0.906959903938737       0.911681884954814       0.916240007190976       0.920445532681647       0.924535580367257       0.928508275874085       0.932366499514270       0.936095352657522       0.939691842006501       0.943162315821727       0.946499044507234       0.949705637667902       0.952797405842319       0.955750322541174     
  0.958571029646482       0.961315807374295       0.963981615649411       0.966566624885937       0.969069589067881       0.971489934068115       0.973828835497503       0.976087336896967       0.978268747722075       0.980376965132103       0.982363897673988       0.984296595111632       0.986160412795204       0.987960088936816       0.989699580922970       0.991380180791841     
  0.992997446285442       0.994552643129552       0.996048278050991       0.997540149902763      -1.047916375743704E-003 -8.576605066931746E-004 -9.816202412441105E-004  0.995699028334619       0.997141581177567       0.995692767952787       0.996935136412973      -2.461764670093651E-003 -4.016370496800706E-004  0.995373873149177       0.996153492718328      -2.038645723487124E-003
  0.994308192148177      -2.361144525025402E-003  0.993830397127327       0.992175369422961      -6.093704104389396E-004  0.992588093760102       0.993571126298193      -2.371584783353427E-003 -3.936724982827960E-003  0.994682419523191       0.994844967351550       0.998572713570798      -1.437511056333245E-003  3.427411431061259E-004  0.990838527069948       0.989069074972969     
  0.987295746906247       0.991683488442973       0.997883186743221       0.993168678980346       0.990962050810369       1.895763098816495E-004 -2.008453860601326E-003 -4.020900373879909E-003  0.992572669593277       0.997134671308145        1.00022136419391       0.997853394169813        1.00090153098698      -3.345815665892257E-003  1.362055573658370E-003  0.996266129237804     
  0.996658322104958       0.999217380298507       0.989233757198091       0.989854377849868       0.988003968340484       0.986091114053139       0.990691199167960       0.992470658215739       1.301518841416351E-003 -6.846952016698553E-004  3.988793447210087E-003   1.00200986282267       0.990222460567531      -5.372657875326941E-003  2.623194871445306E-003  0.990691400742616     
  0.987352411387463       0.988742871224900       2.563771504746774E-003 -4.069431567210899E-003  0.991433696432290       0.999632416773014       0.999088824125776       4.092736048637254E-003  0.988861355694375      -2.591169822448258E-003 -3.781600857223175E-003   1.00291993183414        1.00098601759746       0.994583204279068       0.998719462354700        1.00079473945103     
  0.993477730629279       7.435956253337786E-003 -2.442297784781499E-003  0.999357148225226       0.998505124866417       5.732446638201106E-003  0.985389677348399       0.983406491541500       0.991627203474579       0.997748182531192       0.986643697885337      -5.834044025621596E-003  0.988049281948453       9.106785741942921E-003 -5.413375850662956E-004  6.405828873231767E-004
 -5.369221155621206E-003  0.983997202108932        1.00319691868772       0.986875689341526       0.984670789725697       0.997544665997044       0.995511435542757      -1.518672845527942E-003   1.00378827532316        1.00566852521331        1.00152350294315       0.984500289564464       0.982254625402061        1.00062478526978       0.993934953259803       0.985860982036418     
 -4.784854352156943E-003  5.720767540870910E-003  1.864362413746975E-003  7.486012860908392E-003 -7.131347658592144E-003 -1.633909765328829E-003 -1.381466427278052E-004  4.972075549614213E-004  2.092165260925938E-003  0.994465345804077        1.00236581977033       0.995355897537617       0.988003566421913       0.992288421898209       0.981619352418690       0.979461727446154     
  0.982449369118223       3.800219142730433E-003 -5.578540101474848E-003 -7.445181081794351E-003  0.977311914326707       0.989457096185908       5.601400462966634E-003  0.985724163971805       0.990661477471912       0.993427938307793        1.00013252911190       0.999360831038673       3.442470076641559E-003   1.00512627767000        1.00409683892505       0.996311505225898     
  0.998265354094498       6.262278448465464E-003  0.999759197551640        1.00206305576316       1.088245083280097E-002   1.00267464256616        1.00662081063193        1.00436449671461        1.00696593925312       0.989814514965340       0.992959430954177       0.988781515984461       1.555842212305844E-003  7.387797083184264E-003  0.989759445649780       0.985648856239398     
  0.982992489704303       8.892935270289498E-003 -6.035749782214307E-003 -3.818948431941087E-003 -2.570165238266927E-003 -3.843055067672367E-003  0.991096419309588       0.992213427678141       0.980329141221464       0.978133792864106       0.975753075782066       1.124621948148344E-002  0.991788004034749       0.995755557355230       0.994731542768733       0.996836288962665     
  5.216870105552117E-003  1.321155911021174E-002  0.987390149841365       0.987085216083335        1.00298333104867       0.989038893384787       9.288769931262507E-003  0.987077901803816      -4.067956235568678E-003 -7.975823190721151E-003  0.981123704242989       0.979863080586459       1.286878493438369E-002  0.981650053102728       0.977373385631197      -6.029504069794290E-003
  0.985145965532023      -7.508124101053421E-003  1.091673536728021E-002  0.994322087372623      -2.893471148614488E-003  3.615619336788280E-003  0.975092090869622       1.123044678379454E-002 -4.187059739552481E-004  1.099773008513557E-003  1.522170459507417E-002 -9.778292257013091E-004  7.154156736320592E-003  0.978487494938137      -6.329170204189947E-003 -9.031730498510812E-003
  9.197226972643573E-003   1.00532619028561        1.00822183474541       0.979222398306202       0.976768908120758       0.973653721855820       0.984310417290983       0.982166047876335       0.993460127636225      -1.449069493792611E-003  1.316147940967159E-002 -9.772914182984416E-003  0.976458681992627       0.974093478814362       1.497751126033272E-002  4.825940209665563E-003
  8.660047767302557E-003  1.127402251276698E-002  0.972737327679210       0.970352051530950      -8.186302643110703E-003 -1.032958087316627E-002  2.716940488193890E-004  1.309951306502064E-002  0.983486838394036       0.980660697636217       0.982555043259077       0.979927739685033       0.980668692445517       0.980222231518353        1.00864676791949        1.00537396903554     
 -5.805033137908967E-003  9.698916391479327E-004   1.00190035180096        1.00113954191294       0.984560203629977        1.00400645226399        1.00365464847265       0.971598442011386       1.717821845170416E-002  0.981601687872496       0.982994109368778       1.105466687333511E-002  0.998424695642770       0.989322394505327       0.969022777213211      -3.691100090838324E-003
 -5.160929289471946E-003  0.985339994527122       0.995775463149200       1.533507047648871E-002  0.979251803916061       2.857750171416330E-003  1.735984064452531E-002  1.518558567705323E-002  0.973284611867840        1.00762186686323       0.978386422267953        1.00110713355479        1.00003783652642       0.978097507970022       0.997323548908166       1.340513158472024E-002
 -4.223780930835312E-003 -8.211990408279040E-003 -2.548679532042838E-003 -9.978057801064519E-003 -9.657532738905380E-003  3.383567624975737E-003  0.975411885718757       0.975652499622071       0.973073971470866       1.146284486119271E-002   1.00927263660251       0.970588675025746       0.968120964825449       6.975433589487029E-003  0.971481196212204       0.965632478647128     
  0.963393529762775       8.748726278273082E-003 -7.898373040555092E-003 -1.080968996931103E-002 -1.929528275330156E-003  1.964493801229426E-002  1.744647017508217E-002  0.996202006179903        1.00283618947912      -1.180828752739295E-002  0.982709315845491       0.979532410427096      -6.193415125741627E-004 -7.089701963112688E-003  1.506571526491332E-002   1.00175007907236     
 -1.048635076394605E-002 -1.282374451226724E-002  0.977440111145010       0.976959690010893       9.253204286425615E-003  9.866840669649527E-003  0.987363458575317        1.01074496709842       0.990264862393349       1.566658939893668E-002  2.243762128158071E-003  0.969272230099578       0.966778558999380       0.964142456677404       0.961081697063138       1.764289652606712E-002
  1.998051501601107E-004  0.970368265521971       1.378025843454970E-002  1.949690184105581E-002 -1.218009300314583E-002  0.993165044399170       0.994567337338704       0.997308582553674       6.916511742581675E-003 -6.508885379792955E-003   1.00595521259725        1.00591997897325       0.967527548622659      -5.552314787201544E-003 -4.893039027310753E-003  4.456187732629992E-003
  0.970657757250333       1.262464827849001E-002  0.998963317157626        1.00065497702791       2.203420867683873E-002  1.986594332033522E-002  1.752701424029799E-002 -3.739407646351640E-003  2.192484992533366E-002  0.974809127269293       0.971988814408247      -1.459200664854577E-002  0.987737736806290      -1.041973585357924E-002   1.01037986124634       1.573163708245422E-002
  9.163928117319116E-003  2.007534229650250E-002   1.00455704924539       0.968080544009065       0.965500344752289       0.995942540912474       0.962533791927432       2.443676131505689E-002  6.057449052694287E-003  2.235940508932148E-002   1.00855081811883       6.798383448526925E-003  4.102668547986922E-003  3.786153908167929E-003  1.805233126427892E-002  3.201337154035802E-003
 -8.672871892339708E-003  0.990238393847732       0.985248195811435       0.983231183000426       0.985646922076407       0.987684549936071       0.994898627961130       1.495530966751021E-002 -1.600914891008654E-003  0.966127150565498       2.068924005912885E-002  0.969356613609252       0.990761735438155       0.989777438667035       0.987424537957174       0.985216567669683     
  0.988108663773749       0.989046400157272      -1.223310517035190E-002 -3.117930199135212E-003   1.00013221090332       0.984364536280436       0.968222356994096       0.997837972924316       0.996619469084969       2.679609347286351E-002   1.00802364248918        1.00625350945306        1.00978886723185        1.01148426056891      -1.288527148666744E-002 -1.548651410423983E-002
 -8.296705735438127E-003  2.016149280052047E-002  1.764254706353610E-002  1.488463718827595E-002 -9.902165943629821E-003  0.990560259470390        1.00889950156118       6.082880617388273E-003  0.980367866275321      -7.003544080584162E-003  0.992238637539981       0.992944471320476       0.994099260382563       1.606129490984686E-003  0.972208865676007       1.283156196962499E-002
  1.241044741192960E-002  0.980829023014460       0.970592650491583       0.959222362611740       0.962994905542313       0.960113980461260        1.00405000035008       0.964639018287070       0.967698382668207       0.973573088237015       0.971897596566141       0.975553922849363       0.976468274460561       0.974857072643206       0.973227866115353       0.957134230563943     
  0.953858417970284      -5.111916206216456E-003 -1.265738095802616E-002   1.01198756391093        1.01319317203438       0.982323997679675       0.979759681972593       6.466141212845262E-003  6.014640246589329E-004  9.805755924573213E-004  6.653163207856480E-004 -6.133985226696503E-003   1.01127711827938        1.00697390128987      -1.024513017875783E-002  2.937466826112106E-002
  2.651250140607402E-002 -1.496023090005281E-002  9.518180086374594E-003 -1.534233564833325E-002 -1.827234191522336E-002  0.991926467333452       0.990025718797590      -1.247074271149325E-002 -1.521128540421401E-002  2.679869825546664E-002   1.01088690511159       1.217028974018933E-002  0.986413260830325       0.987002154352994        1.00295429737442        1.00895211106342     
   1.01182079635639       0.987625628703331       0.961811285541984       0.958867667222507       0.955640909348453       0.952113359027524      -2.753672779564266E-003  0.977789152757244       0.984849312792932       0.984264576913337       0.982554807226712        1.00909853180495       0.977435928599210      -1.214026477723287E-002  0.984023572157920       0.967019944322990     
  0.968936084500832       0.970285948779634       0.971457627644603        1.01098873217722        1.01156481702696      -8.624537841344933E-003 -1.789128763146039E-002  0.963405365312658       0.973800805044923       0.970878994022407       6.552616004025050E-003   1.00709751535012      -4.213692869603959E-003 -7.867337078217091E-003   1.01179084486657        1.00410783914878     
   1.00198612711454        1.01277704741528       2.301459603600589E-002  2.947586695435367E-002  2.675941157752861E-002 -9.242244434849963E-003  2.257514635343342E-002  2.436998645443702E-002  2.349061183431134E-002  0.978058434675127       0.976648515961289       3.554793901564832E-003  2.894980581470650E-003  0.998999766907821       9.622354765651720E-003   1.01386449012999     
  0.960872948003765       0.987576891603533       0.993312866128314       0.995164626171073       0.957646473012806      -1.192169960227839E-002 -1.507654636031853E-002  0.964530072363249       0.980157877270558      -1.510122220298913E-002  0.981211298377473       0.984426857614035       0.990797735826407        1.00639740866511       0.972893750325633       0.969066206367877     
  0.966001666036940       0.963716571525381       0.967687118387674        1.01323359220363      -7.368599512325704E-003 -1.090292227185560E-002  1.195863455669582E-002  2.462068710785256E-002  2.055936443730913E-002  1.777143542065827E-002  3.214548351260547E-002  2.968847621841037E-002  2.823495736764911E-002   1.00494404065774       1.480175996329950E-002 -1.642640180088841E-003
 -1.628292987078609E-003   1.01407078604273        1.01638025786866      -1.522369353139146E-002  0.954536934987377       0.951419190362303       3.240259048073159E-002  3.012203104499820E-002  2.786938917139121E-002 -1.244242538670927E-002   1.01374761968087        1.01744137558029       0.975328639883726       0.969885589100929      -5.296535338201000E-003  9.257804114147516E-003
  6.820655666251065E-003 -1.828734276336720E-002   1.01399063130630        1.01508820461409       2.481431883974954E-002  2.140977214558601E-002  0.965838971518410       0.967359542854972       0.968855800159376       0.969042736619587       0.997714826410619        1.00545336575610        1.00818499724723        1.00398863654583      -1.044360527179311E-002 -1.295747009049041E-002
 -1.512453505051888E-002  0.948233274380391      -1.066596993508971E-002 -1.407424107955346E-002  0.975232541146287       0.956026226187605        1.00895860274736        1.01179801431210       0.981067519145924      -1.398868407991360E-002  0.991174285604357      -1.765636725326648E-002 -2.094169184410989E-002  3.531997834425610E-002  3.313983708139590E-002  3.100286493375874E-002
  2.902979351173009E-002  0.972288406414494       0.975089786215783        1.00091057759979       0.999665850128379       2.390529206264238E-002   1.00710798614354       4.349038387619679E-004  6.351719319294625E-003  3.502541155961769E-003  0.966601023773139       0.968983347623831       0.978246184157337       2.458364748565709E-002  1.844446501176706E-002  1.579064672641581E-002
  0.999685459081222        1.00222441677637       0.998769320559028        1.00587488373528        1.01455050350580        1.01475352249303       1.285794380607860E-002   1.00348093979418       3.506203611813651E-002  3.215895886536468E-002  0.952972288961084       0.949712994818098        1.00531252343797       0.946141741829903       3.825353399783860E-002  3.601618005974720E-002
  3.389770018072964E-002   1.00893592907590       0.960777524010248       0.957289029640352       1.893879851428223E-002  0.962409548772974       0.984891223332656       0.976917900383124      -1.668536987263411E-002  0.965503019089160       2.091423724009346E-002  1.786973968918837E-002  0.964119032491864       0.966113278473835       2.908475461539936E-004 -6.893245562768398E-003
 -1.392126916466536E-002  9.863877240494347E-003  0.963797407191344       0.961595338509400       0.967925445337135      -1.751980289840015E-002  8.960677157448228E-003  0.954490779201636       1.468236049028212E-002  2.222760875366837E-002  2.564392592568032E-002 -1.238247831099079E-002 -1.532061155721569E-002 -1.376749408635500E-002 -1.708794871301970E-002 -1.751884484490029E-002
  0.954507338382620       0.958684845080662      -2.156705919869300E-002  4.129008308043565E-002  3.887948865888902E-002  3.653167727372356E-002  3.474298424355180E-002  6.821934376527551E-003   1.01232043588082        1.01689514447589        1.01884699609499        1.00967417224775        1.01658179023507       0.971675829543943       0.975074542077769       0.960484351013957     
 -2.055204142233260E-003  3.822022517762905E-002  3.543516231041390E-002  3.238908530080705E-002  0.951636191430524       0.947862857288838       2.431575417282283E-002  0.996643479218660       4.286425697872230E-003  3.961511570299030E-003 -1.793559908155364E-002 -1.574198916006076E-002 -1.760972440443266E-002  0.962469643642298       0.958570711111650       0.978010821875651     
  6.245669323962024E-003  4.118409897903667E-003  1.315434827431844E-002  1.165946139444879E-002  0.943310231192220       0.948549579946216      -1.828499909190972E-002 -1.819977735724694E-002 -1.752800908762196E-002 -2.131446006507005E-002  0.964786950130732       4.448440153839014E-002  4.202522264467599E-002  3.908622696923034E-002  1.957405712928128E-002  0.954219299034518     
  0.957634269110042       0.959803288404945       0.950687377195547       0.956373962547515       0.952821652413645       0.949215256962609       8.284644159745416E-003 -1.227401150455536E-002  0.997675334140663       0.974260606038189       0.973049025649402      -2.027000495039685E-002 -2.023674244694405E-002  0.970682286573089       1.615416502663202E-002  1.374808399306990E-003
  0.981366019118458       0.984410702341707       1.663848099745306E-002  2.116864061231814E-002  1.795559101625509E-002  1.457362489862425E-002  4.148254610190703E-002  3.882108282420862E-002  0.978698170042630       0.973499060314284       1.000898014961293E-002  6.701539924695891E-003  0.945107446089084       0.941616131034076       9.005937470324299E-004  1.126424260674953E-002
   1.01413651327086       0.960684698869645       0.956557410011121      -1.922388030246177E-002 -2.146020402532519E-002  0.938026077711992       0.934385110042562       2.316418084401550E-002  0.947157828846018       3.594441674759261E-002  3.274217492585629E-002  2.695200801195699E-002  4.780249781122084E-002  4.540601235615329E-002  4.295244110309518E-002  4.088129355097707E-002
 -1.699866789245379E-004  0.987615733327455       0.990844645777849       0.955052870496392       3.695241158413921E-003 -2.004013444457877E-003   1.01413036441148       2.464804483594180E-002  4.478916093326735E-002  4.216985711525342E-002  3.963716565219715E-002  2.032109509789588E-002  7.457147626328594E-003  1.348293427779871E-002  0.943652502667947       0.940070542321316     
  0.942338049412707       0.987582085476720       0.994037072967816       0.994109136600013       0.945385772143592      -2.263774509551318E-003  0.958652782619193       0.951315193629438       0.947550441476446       0.988571021648636       0.992260092836018       0.938245463132407        1.01068834910570       0.990855089395752       0.934447402822563       0.956577012329029     
  0.954567200555149       0.952421373220562       0.971599433429047       0.945704549408775       0.957497416006845       1.013141320790647E-002  6.527687248532236E-003   1.01643101211277        1.01501090146071        1.01644437117999        1.01867773837821       7.833956529100172E-004 -1.447942811720871E-003  1.092146268601018E-002  4.817376525666114E-002  4.539726552116718E-002
  4.283721071313085E-002  4.134816614129292E-002  0.950222958617588       0.946108329661114       0.930442924200832       2.144405363536649E-002  1.809209656958828E-002  2.714905870492293E-002  0.989514868694341       0.978249878482359       0.982127616694547       0.985863213041552       0.974962915418698       0.974954041645936       5.122585755387758E-002  4.879119648093436E-002
  4.632651951722507E-002  4.395252135334763E-002  4.087250334660990E-002  0.953577112091267       0.955979573795399       1.456905822437335E-002  1.719072634671033E-002  0.961522015623678       0.993188617938192       0.964046454599865       0.960032128855324       0.966599326048078       0.939861145111889       0.998056136946225        1.00105432530805       0.994249875240421     
  0.942265004602613       0.938581353528071        1.00193017540703       0.948592267663027       1.384555140273497E-002   1.01761107191728       2.877853619381326E-002  3.116225981218025E-003  0.936325520861026       0.952536987147826        1.00036137407583        1.00310082042191        1.00622928611536       0.967362975952667       0.944712979409658       0.949605502786416     
  0.945055142460961       6.899508059534648E-003  5.171378583244629E-002  4.878947082376420E-002  4.557878874459728E-002 -9.020643641915238E-003 -1.211912394814017E-002 -1.552674441069696E-002 -5.294620030906787E-003 -7.654585004716501E-003 -3.333584870881523E-003  0.987448645920556       0.979400905413672       0.999395494482992       0.944365060114628       0.936454200700150     
  0.932437024368447       2.518971919310252E-002  2.913414490466654E-002  2.426857841120645E-002  0.996938556622799       0.998285334053300       0.990824750661809        1.01796007256953        1.02004230633259       0.990332041352250       0.995852325542595       0.996976712013433       0.994109346205372       0.984228598835440       0.963008308750791       1.028240537317207E-002
  6.449712842026262E-003  0.934543211895934       0.950626556700669       0.948292024346207       3.189829763213935E-002  3.080622355756266E-002  2.883107519665283E-002  0.941872693381873       0.947222303055298       0.943807300953001       5.477780238409676E-002  5.226639387185000E-002  4.966845962321189E-002  0.983203169876783       0.986757895880490       0.987258191802601     