 VARIABLES = "X" "Y" "RO" "U" "V" "P" "M"
 ZONE T="  0.000000000000000E+000 " N=        9944  E=       19548
 ZONETYPE=FETRIANGLE DATAPACKING=BLOCK
 VARLOCATION=([3-7]=CELLCENTERED)
  -19.9782054645671       -16.7460447536127       -13.5432470514743       -10.4462771124608       -7.39483127129757       -4.39431260318683       -1.43672854734527        1.47853524247441        4.40194279230921        7.38347804238703        10.4122197804982        13.5308676756442        16.7310607632789        20.0189460056259        20.0156650185539        20.0123451374732     
   20.0090067226427        20.0056742799471        20.0022854763303        19.9988742323503        19.9954939648514        19.9920871178897        19.9886881104951        19.9853470049941        19.9820070605281        19.9783478910574        16.7317203104092        13.4557822172063        10.1645634122701        6.87452312340184        3.53259687976399       0.170578499054329     
  -3.16443525887912       -6.48474521199279       -9.79114624567630       -13.0836966857758       -16.3754018560739       -20.0188035791356       -20.0155069002833       -20.0121812769038       -20.0088400757232       -20.0054989473046       -20.0021446450312       -19.9987763328347       -19.9953939522161       -19.9920253568386       -19.9886729196427       -19.9853365630757     
  -19.9819979716434       0.998173038594967       0.996650068998309       0.995131750123227       0.993623922878879       0.992071580123944       0.990458343106499       0.988779369417937       0.987039173374506       0.985237656945471       0.983372502742479       0.981429688698068       0.979417798473931       0.977320620880184       0.975150883883928       0.972904736326322     
  0.970574768389887       0.968158437630098       0.965654932403505       0.963061939494843       0.960379827015782       0.957603612353774       0.954725479836884       0.951734303809358       0.948620661225067       0.945413302825883       0.942090532598441       0.938619753965717       0.935043379207529       0.931349275590218       0.927515960059681       0.923508497676145     
  0.919357550609657       0.915057867683596       0.910595566564267       0.905961684204413       0.901149791059742       0.896153388935559       0.890959932250834       0.885556704348647       0.879936093478116       0.874090392590332       0.868020803841613       0.861720166856171       0.855180607195485       0.848392188406976       0.841346126143742       0.834034011070840     
  0.826449534660513       0.818584334765965       0.810430201726433       0.801978797910736       0.793221313129949       0.784150111008434       0.774756286718343       0.764915909161095       0.754717674964077       0.744150107728295       0.733202451560105       0.721867569983813       0.710132946160895       0.697985753724533       0.685418501489844       0.672419168516286     
  0.658973547180024       0.645073903333039       0.630706378650531       0.615853892703725       0.600504894983988       0.584638311238089       0.568241187242210       0.551297570581846       0.534395572068055       0.517453053528719       0.500437724924456       0.483349649161944       0.466188472083927       0.448304625134892       0.431013980731554       0.414315533688017     
  0.398208116841092       0.382676264644821       0.367635665301984       0.353068338260165       0.338970563301435       0.325351502336144       0.312196415213598       0.299506602572260       0.287283221780921       0.275508147355202       0.264156456321693       0.253180742681031       0.242568480978401       0.232307354030014       0.222390168356371       0.212808877605286     
  0.203551834398162       0.194607821827202       0.185972259442345       0.177628895032789       0.169568043652318       0.161772692049761       0.154236007651390       0.146951597563653       0.139913357875605       0.133115067185363       0.126549820050008       0.120212035359616       0.114096491388405       0.108197866266613       0.102511608695328       9.703332813676827E-002
  9.175882146089923E-002  8.668458558632014E-002  8.180687093012536E-002  7.712189828858741E-002  7.270748163450379E-002  6.845690194584361E-002  6.437179555367169E-002  6.045039319020903E-002  5.669278835673693E-002  5.307701927439246E-002  4.961464615900638E-002  4.630354696890307E-002  4.312606511188722E-002  4.005318813727953E-002  3.708184176054966E-002  3.418940471402759E-002
  3.137628963896771E-002  2.864760050757835E-002  2.600623293119233E-002  2.345620665801915E-002  2.100368302141680E-002  1.865632204025228E-002  1.653097880572410E-002  1.448795166792643E-002  1.254682365562665E-002  1.072633056739560E-002  9.050838622284620E-003  7.457471362516990E-003  5.911940221636497E-003  4.515078273880320E-003  3.259664745267613E-003  2.184155564735134E-003
  1.347924954194548E-003  8.151276106871430E-004  5.928786982404106E-004  6.089871350110077E-004  9.655472222886894E-004  1.680385165108477E-003  2.702174943192077E-003  3.938527492979753E-003  5.318066983946971E-003  6.786671909819695E-003  8.551565782570856E-003  1.039992145242217E-002  1.234895064089304E-002  1.431066454878905E-002  1.631654473357518E-002  1.841633002654999E-002
  2.066209787838874E-002  2.301935146936482E-002  2.549824633175692E-002  2.803794847314192E-002  3.064632198444467E-002  3.336835558317298E-002  3.624434891282299E-002  3.927162594085169E-002  4.243945192897350E-002  4.573556817117468E-002  4.914891774131851E-002  5.266743824931254E-002  5.628767568983921E-002  6.000948660702387E-002  6.382542296154725E-002  6.810069847731670E-002
  7.252109699993788E-002  7.708396041679653E-002  8.178607396061383E-002  8.655790280571514E-002  9.146944919265848E-002  9.654722489715895E-002  0.101789042604064       0.107196944085496       0.112761032635885       0.118500862359709       0.124457701639880       0.130681559721977       0.137185364705179       0.143972128512932       0.151038140878795       0.158384442722885     
  0.166013959708274       0.173927523181945       0.182128914454230       0.190621433045194       0.199409345311194       0.208678438649855       0.218286027070743       0.228237596546480       0.238541954957542       0.249207095449185       0.260239854508911       0.271650278627652       0.283448790744099       0.295642541019664       0.308241959938394       0.321258952380968     
  0.334700562283709       0.348576228293380       0.362898852322780       0.377668192105406       0.392894326609858       0.408582746549814       0.424718397751697       0.441310978204891       0.458302718158731       0.475684871514419       0.493132689727548       0.510440768561445       0.527607817067552       0.544636655188003       0.561531436199393       0.577977314681624     
  0.593951860594030       0.609436515751956       0.624431144483247       0.638938684032804       0.652924427616906       0.666400433521739       0.679382517138707       0.691889005368282       0.703940504823854       0.715588240267931       0.726873916290290       0.737805803709816       0.748392370130289       0.758636010020957       0.768545222438441       0.778128874099814     
  0.787395782144226       0.796269027376409       0.804816938686468       0.813044325373888       0.820957031930799       0.828559654027600       0.835856464060909       0.842854594925615       0.849615864322663       0.856169794625315       0.862519410371897       0.868668419847526       0.874620611294733       0.880379893458457       0.885949483483344       0.891332423300802     
  0.896532092727709       0.901552769307306       0.906402078285325       0.911084499538489       0.915604475590183       0.919774844351636       0.923830742087131       0.927770315196902       0.931596427211889       0.935294312056702       0.938861010293861       0.942302826933794       0.945612105050351       0.948792432155963       0.951859000491369       0.954787983984024     
  0.957585971625694       0.960308793654630       0.962953440140019       0.965518099739499       0.968001537763697       0.970403183837619       0.972724201711926       0.974965622321857       0.977130723972368       0.979223367583455       0.981195802008828       0.983114573699358       0.984965135163004       0.986752179975522       0.988479626954517       0.990148748209225     
  0.991755119603311       0.993299985029768       0.994785821290201       0.996268055997637      -6.463006728118907E-004 -5.125680666780937E-004 -5.178171546643955E-004  0.994404521733828       0.995850365399393       0.994398127667306       0.995675400039674      -2.029247703691588E-003 -1.143027373583951E-004  0.994122225679917       0.994904027924720      -1.713988165030406E-003
  0.993010586103460      -1.981630480163915E-003  0.992586948413952       0.990942382043099      -7.041053620342110E-005  0.991286485648013       0.992271612392195      -1.878799098770926E-003 -3.524772095476702E-003  0.993438435012857       0.993608149914400       0.997306583536759      -1.169812554030527E-003  5.708372878102691E-004  0.989533195474086       0.987760152538658     
  0.985983281995519       0.990380207784751       0.996626980663021       0.991933733105281       0.989741311062905       8.104689114556869E-004 -1.425251403350211E-003 -3.563889188845453E-003  0.991271364775617       0.995889207237416       0.998952848347139       0.996564119377279       0.999625711838842      -3.040328172516990E-003  1.532343709174738E-003  0.995034855189761     
  0.995365626970552       0.997932380476291       0.988019829158196       0.988547698973695       0.986693925529480       0.984777600893117       0.989467020018392       0.991249420329239       1.991839185307550E-003 -2.963518642605653E-005  4.808471668106785E-003   1.00074455393168       0.989015577724833      -4.937355160720822E-003  2.738846971609299E-003  0.989386686517898     
  0.986152201652590       0.987538417908044       3.319798274463119E-003 -3.550718276401982E-003  0.990130663285861       0.998347199348824       0.997836813675402       4.157060370718320E-003  0.987553778061478      -2.342002486783849E-003 -3.420636554241081E-003   1.00165086823062       0.999728604928438       0.993285911710761       0.997431448842643       0.999511440297450     
  0.992178493696252       7.409748736781695E-003 -1.808011671065728E-003  0.998096785252891       0.997265308516207       5.748433158876763E-003  0.984203056251164       0.982233675448786       0.990419863859601       0.996522090342900       0.985452554363273      -5.356553022837525E-003  0.986854741387226       9.047752563258508E-003 -3.309358417418172E-004  7.950692843941892E-004
 -5.027151410711807E-003  0.982679538786703        1.00194003202045       0.985564683882635       0.983355723634502       0.996252966832977       0.994215997521940      -1.325105402297328E-003   1.00252562712698        1.00441268068277        1.00024483770370       0.983322695089418       0.981091160168621       0.999378665440849       0.992715263480467       0.984678803903917     
 -4.498728681460029E-003  5.717244475669332E-003  2.645720941696468E-003  7.447478810347544E-003 -6.809302124617763E-003 -9.545477067001897E-004  1.068165159233478E-006  1.214004649042875E-003  2.192615707516681E-003  0.993168062038478        1.00111581139004       0.994139151950810       0.986695310342718       0.990987441375677       0.980297196307112       0.978136303085898     
  0.981129865079346       3.847911256257361E-003 -5.181854431143500E-003 -7.006632254750812E-003  0.975983181605724       0.988261061151176       6.483751830341954E-003  0.984408978524627       0.989465549290902       0.992128763569587       0.998899028107213       0.998140439141539       4.287902680412325E-003   1.00386198474103        1.00282533692453       0.995017080708873     
  0.996974270700852       6.232193419381616E-003  0.998472555609946        1.00078170983937       1.078791827003626E-002   1.00143511558322        1.00535467049693        1.00311666845752        1.00572167608126       0.988509484629763       0.991753202993709       0.987592590219847       1.641112882538780E-003  8.332584163668624E-003  0.988453710644096       0.984336501662521     
  0.981675161723581       8.825465066020702E-003 -5.495129358058987E-003 -3.175007845452154E-003 -2.392540478290503E-003 -3.612027704443729E-003  0.989793562540072       0.990912369724670       0.979006584475590       0.976808093528383       0.974423769253889       1.230603926855529E-002  0.990593816306943       0.994459996510335       0.993434279379691       0.995623788110867     
  6.125838030502157E-003  1.432036040519435E-002  0.986203854897876       0.985905989610765        1.00170552960494       0.987733165950031       1.029332851175246E-002  0.985768837826714      -3.476379548717709E-003 -7.474018488878717E-003  0.979803158853240       0.978716240183373       1.273855727693303E-002  0.980488058455892       0.976245462298293      -5.428854808210955E-003
  0.983973346770364      -7.129556935868996E-003  1.081055533519366E-002  0.993118607605936      -2.188594691579324E-003  3.645849416474440E-003  0.973980209385456       1.231194778957051E-002  3.241081052660845E-004  1.907482740196692E-003  1.637748997150327E-002 -8.528140241448796E-004  8.125381263234588E-003  0.977355553084378      -6.063219802515440E-003 -8.732694046912242E-003
  1.022754826209649E-002   1.00405285052340        1.00695444620033       0.977899809209090       0.975443173526389       0.972322866495114       0.982996557771484       0.980848763196561       0.992161008893214      -6.795144130013692E-004  1.428410127497156E-002 -9.355428103452074E-003  0.975339524706701       0.972991263002362       1.481437493674510E-002  5.762182308077670E-003
  8.580251629089816E-003  1.237229972147134E-002  0.971643007276322       0.969275749141599      -7.626646850876141E-003 -9.806821372702411E-003  1.105803509031777E-003  1.295828659033349E-002  0.982319652312264       0.979515210842846       0.981401761120611       0.978793715763166       0.979348787012690       0.978902885366049        1.00739686160958        1.00413660181911     
 -5.143687912036827E-003  1.040473495225209E-003   1.00067344725239       0.999925322748888       0.983401502363503        1.00272888326699        1.00237486704152       0.970514170366550       1.698460201208326E-002  0.980461577466088       0.981849783576378       1.093529997221994E-002  0.997217291690391       0.988136713401870       0.967955980854691      -3.528514091988304E-003
 -4.947609358795748E-003  0.984028835459687       0.994576057498813       1.516337368814579E-002  0.978125368775752       3.730009374991409E-003  1.856505270655791E-002  1.635504093254345E-002  0.971951098944828        1.00636311289012       0.977064227072486       0.999822354773929       0.998749699323039       0.976971315009576       0.996030400223125       1.325301648192364E-002
 -3.491953312404469E-003 -7.597571609216900E-003 -1.753672801600560E-003 -9.510284558960668E-003 -9.296987223767083E-003  3.395095705730073E-003  0.974080537491312       0.974542562562666       0.971982001121336       1.132937266120309E-002   1.00801191819737       0.969251792028473       0.966781545759756       7.973948764249041E-003  0.970146522477755       0.964290589606225     
  0.962049688432353       8.655131239640401E-003 -7.652742497060310E-003 -1.053493992733455E-002 -1.817730535660138E-003  2.090056848939929E-002  1.866630004616084E-002  0.994907012888462        1.00155313235775      -1.136362389215837E-002  0.981394307789775       0.978213497551830       2.406550699259196E-004 -6.393777668053114E-003  1.625051345418685E-002   1.00046400233338     
 -9.908319905424933E-003 -1.228031307472630E-002  0.976321801358221       0.975852119859811       1.031087833959001E-002  1.095865480069384E-002  0.986193370575645        1.00948318123541       0.989085526529835       1.548860336110454E-002  3.143092743206432E-003  0.967935591919100       0.965439633191940       0.962801049988257       0.959737011540158       1.744239642305700E-002
  2.531983874775081E-004  0.969294774154216       1.361973184926187E-002  1.927347789557356E-002 -1.177835754221337E-002  0.991974470206823       0.993380403510267       0.996113810547200       7.942129266899200E-003 -6.312476925969822E-003   1.00468020752997        1.00464257800055       0.966474394279899      -4.795381044215492E-003 -4.745352843459789E-003  5.419995453296213E-003
  0.969323741755203       1.247358323015112E-002  0.997672699554871       0.999366435887475       2.333918534367881E-002  2.113596803680262E-002  1.876173713908444E-002 -2.920652242484142E-003  2.167213185544880E-002  0.973709670436663       0.970907999852506      -1.414474714369475E-002  0.986576525339019      -9.792603922729789E-003   1.00912612251845       1.554886085125779E-002
  9.057180554520563E-003  1.984499974203227E-002   1.00327586770405       0.966744458052748       0.964162356091194       0.994760560257082       0.961193085138912       2.578635699941156E-002  6.011550361005549E-003  2.367735939071816E-002   1.00727966034597       7.851903248342524E-003  5.095323631265790E-003  4.808682642327405E-003  1.784530613836906E-002  3.194857497914729E-003
 -7.948544476403065E-003  0.989069528696913       0.984095023015219       0.982090898519882       0.984497556378494       0.986531590723587       0.993601723956884       1.615530313912281E-002 -7.140170332087261E-004  0.965081241327390       2.045205668991899E-002  0.968023140603083       0.989458769477379       0.988472889291194       0.986116749382680       0.983906172309859     
  0.986802176024906       0.987741226570512      -1.189816905570742E-002 -3.019429933042558E-003  0.998930380060855       0.983229898276648       0.967159972809959       0.996545403902025       0.995325072354320       2.818635270066007E-002   1.00678863303708        1.00502480545127        1.00854773335069        1.01023822111452      -1.228895325693785E-002 -1.492054033100116E-002
 -7.643989257962277E-003  2.144529456590283E-002  1.889125808995359E-002  1.609868256453453E-002 -9.232786862665671E-003  0.989401954340933        1.00762592137431       6.019642720560714E-003  0.979240150002718      -6.222837487302359E-003  0.991058121156231       0.991769546004132       0.992934853893298       2.533647218523269E-003  0.970878446963228       1.396612078295674E-002
  1.356080712193347E-002  0.979710493136344       0.969262391775015       0.957878466268979       0.961976318345058       0.959117285904399        1.00281917896962       0.963609620289637       0.966365235650057       0.972246475450170       0.970570488877426       0.974228644388956       0.975145644530161       0.973533403286632       0.971903339666515       0.956160677282029     
  0.952910585196419      -4.271017719458262E-003 -1.201589999698496E-002   1.01073062130735        1.01193331872789       0.981010370138292       0.978442728441185       6.386619902739293E-003  6.286312302370470E-004  1.940631084403265E-003  1.658538837200841E-003 -6.001251566118103E-003   1.01000857746549        1.00569654052800      -9.494685672314065E-003  3.081664936797481E-002
  2.790362135465816E-002 -1.458171357935360E-002  1.063167893209043E-002 -1.472545089619275E-002 -1.767907630774235E-002  0.990625271272883       0.988722203979635      -1.198370864378262E-002 -1.470285251562238E-002  2.649796920546197E-002   1.00965440453391       1.333552695206136E-002  0.985104592795378       0.985694659981189        1.00174645798048        1.00772583476819     
   1.01059684709124       0.986319841194101       0.960802370465792       0.957881104863760       0.954678881752377       0.951178663911522      -1.830883355503613E-003  0.976686186986480       0.983539306506548       0.982953684113979       0.981242410603417        1.00782337971795       0.976115261220828      -1.144375385095720E-002  0.982713363417587       0.965684539050415     
  0.967606079379745       0.968958626672544       0.970132538967218        1.00972362960086        1.01029411438270      -7.822416291434518E-003 -1.747220105640888E-002  0.962386935837232       0.972713206018175       0.969809716102704       7.632501007166828E-003   1.00587804460402      -4.126355875899454E-003 -7.687035466263673E-003   1.01051844782238        1.00288740552426     
   1.00079008391681        1.01153845367782       2.434598939627690E-002  2.914646725886654E-002  2.646247653130443E-002 -9.077121197027619E-003  2.231639613545190E-002  2.409149987987090E-002  2.322552531933755E-002  0.976961543169993       0.975327846394611       4.605181331843346E-003  2.865007086365249E-003  0.997810461862065       9.505187344642563E-003   1.01260089028774     
  0.959873253660760       0.986437250420686       0.992013779065660       0.993868350714688       0.956298957709599      -1.115086957330118E-002 -1.474106891720467E-002  0.963193622544908       0.978842672788665      -1.444561109948190E-002  0.980103087305281       0.983309071665211       0.989653724962240        1.00511794393997       0.971816075907278       0.968005302904188     
  0.964964307793029       0.962701221640441       0.966640087226795        1.01198397827956      -7.250489512524015E-003 -1.069259011644561E-002  1.313790814336939E-002  2.597441758813543E-002  2.185684690027496E-002  1.903476338400739E-002  3.363362189367890E-002  3.114144748709851E-002  2.966778699573275E-002   1.00374190924379       1.603088938573804E-002 -1.581862917433143E-003
 -1.591359577180959E-003   1.01282733154927        1.01513499993789      -1.452680355179066E-002  0.953187433921286       0.950067900424192       3.204647214873938E-002  2.978946825541168E-002  2.756076620033103E-002 -1.224808525225855E-002   1.01248073933011        1.01618053716094       0.974236970109590       0.968829047777321      -5.217682709040838E-003  1.038903235553644E-002
  6.730045461723424E-003 -1.775823518943225E-002   1.01276121374649        1.01386721012659       2.453524448715769E-002  2.116600353945309E-002  0.964506241011058       0.966029874725570       0.967528294343137       0.967716880991154       0.996539537747358        1.00424145792691        1.00697552706662        1.00279870846056      -9.620618283617511E-003 -1.222524233071101E-002
 -1.438362863249530E-002  0.946880209206487      -1.051343719246809E-002 -1.389563453898508E-002  0.974146489408101       0.954679765766366        1.00768209571503        1.01052448320058       0.979754600529766      -1.375141379651103E-002  0.989872657951900      -1.729910616385501E-002 -2.054888941362338E-002  3.494085790442440E-002  3.278266411408177E-002  3.066598632934976E-002
  2.871138154068350E-002  0.971222144462192       0.974012638171361       0.999727047640120       0.998496461370489       2.525569219573293E-002   1.00591365808977       1.454756761692361E-003  7.454141006348865E-003  4.579889814918560E-003  0.965569877481495       0.967941150211401       0.977157490627449       2.430950426798670E-002  1.823086910795672E-002  1.560281004233918E-002
  0.998395119421523        1.00093710518652       0.997477231849711        1.00468980920558        1.01328259039829        1.01348382482973       1.270069276821565E-002   1.00219633542747       3.659865448083698E-002  3.365120194160272E-002  0.951624014531126       0.948362836843947        1.00402909180645       0.944789567263889       3.785321309631256E-002  3.563833338822993E-002
  3.353967604731390E-002   1.00775015923128       0.959437379186993       0.955945544436390       1.871890503601019E-002  0.961073511124865       0.983583038581848       0.975599162504606      -1.637262945778228E-002  0.964485112140039       2.222923643820295E-002  1.915054245476839E-002  0.962786586046637       0.964783918189651       1.336142859317710E-003 -6.033484401073363E-003
 -1.312457148172194E-002  9.736830483260002E-003  0.962787173476791       0.960602075864275       0.966899208792687      -1.704337566578699E-002  1.010600365361527E-002  0.953144910454749       1.592964143704044E-002  2.197592980661135E-002  2.535847032344458E-002 -1.212774417326449E-002 -1.504357277165193E-002 -1.346848909684371E-002 -1.682701436785277E-002 -1.685702414008955E-002
  0.953164104829113       0.957345363567947      -2.100857936863872E-002  4.086814043881089E-002  3.848232418412859E-002  3.615466129221128E-002  3.438337445859178E-002  6.721492466876229E-003   1.01110770089338        1.01566937890527        1.01762854835265        1.00845482446136        1.01537229347599       0.970623611891836       0.974008834928834       0.959148819363577     
 -1.083224847343185E-003  3.980674599410994E-002  3.697851855545477E-002  3.388594581010670E-002  0.950289206071129       0.946514271194789       2.568966764446684E-002  0.995481168156651       4.222930800721234E-003  3.892799847849280E-003 -1.764523498433822E-002 -1.552193170288717E-002 -1.740604003741509E-002  0.961137519407427       0.957235759535928       0.976689210897980     
  7.365087020494647E-003  5.230037455342094E-003  1.298983497852593E-002  1.285383353249945E-002  0.941959546830496       0.947646221167500      -1.758742390967664E-002 -1.743681273586522E-002 -1.689259999338444E-002 -2.068379102339424E-002  0.963458080388580       4.404076090206055E-002  4.160455824560045E-002  3.869172599564578E-002  1.934730121902418E-002  0.953269901057170     
  0.956658948631930       0.958815535928058       0.949766574898129       0.955410896635780       0.951885907039192       0.948307986264193       9.443088572155176E-003 -1.212756703552199E-002  0.996524908324636       0.972938006377966       0.971726824774200      -1.998593776392223E-002 -1.990831410079980E-002  0.969648498213120       1.596098042429857E-002  1.339201941460090E-003
  0.980268736462874       0.983305831726281       1.643843057016671E-002  2.250360959224502E-002  1.925640954608908E-002  1.584235924379930E-002  4.311771790481595E-002  4.041662929995680E-002  0.977615453490204       0.972458860207817       9.872505323307414E-003  6.591630663189007E-003  0.944231666361113       0.940768076652913       8.554513372209780E-004  1.247794162316436E-002
   1.01286452958752       0.959353068055260       0.955223103361749      -1.898012175674888E-002 -2.123492246198070E-002  0.937207235889756       0.933596418226702       2.290360915012315E-002  0.946265824523789       3.749559077652742E-002  3.424386635688809E-002  2.665624382068949E-002  4.733884503581763E-002  4.496446125239707E-002  4.253187444367609E-002  4.047790215212203E-002
  8.961037733333157E-004  0.986491088530793       0.989714999387936       0.954103246790526       3.619449635286940E-003 -2.001995994573818E-003   1.01292886480793       2.603792345668921E-002  4.646967809318497E-002  4.381309969021331E-002  4.124574737587468E-002  2.008673096870850E-002  8.635822826896258E-003  1.331002225806426E-002  0.942787253787409       0.939232856773135     
  0.940983526694638       0.986471096802477       0.992889049990750       0.992976218558501       0.944031366085491      -2.285248839338898E-003  0.957675763104554       0.950393281599589       0.946656874002890       0.987266939743557       0.990960196723014       0.936889718918570        1.00948976743691       0.989739060576749       0.933090739200512       0.955238479171771     
  0.953229552504790       0.951084548725876       0.970277757695305       0.944824182294034       0.956535239211289       9.984897371608500E-003  6.406639684836003E-003   1.01519573692435        1.01375769545642        1.01518773967039        1.01742919504086       7.274127592387606E-004 -1.495379443833707E-003  1.215826567062498E-002  4.989902618564995E-002  4.708012174506894E-002
  4.448819663100711E-002  4.297803761746994E-002  0.948878039974458       0.944762078382393       0.929085436274315       2.279816793166932E-002  1.941468470437213E-002  2.857117301280261E-002  0.988212277881837       0.976934630611691       0.980817156208017       0.984556830721838       0.973643747715591       0.973636950617125       5.074301422462642E-002  4.833085282825424E-002
  4.588668043571864E-002  4.353105424151167E-002  4.047832329007984E-002  0.952641905990296       0.955032794041468       1.586137114702166E-002  1.698267080674801E-002  0.960524846135892       0.991889911068057       0.963045363388654       0.959058689843105       0.965591175979546       0.938507767409777       0.996762921970528       0.999763915898715       0.993129403811407     
  0.941408566970744       0.937753981638593        1.00076825286244       0.947249432045516       1.366335378942771E-002   1.01641455578801       3.022627362122863E-002  3.032786140623603E-003  0.935517823032438       0.951195837762792       0.999218570337021        1.00192230666640        1.00505606341413       0.966037840669702       0.943369000180313       0.948696566912803     
  0.944178575140267       8.102850784289777E-003  5.348567727370457E-002  5.051704230001033E-002  4.726299857587429E-002 -8.150298202218987E-003 -1.128011951833068E-002 -1.469697491726443E-002 -4.370880450814056E-003 -6.730102701116011E-003 -2.347722446888945E-003  0.986351430341518       0.978088661325270       0.998103129043476       0.943493929187717       0.935100213305821     
  0.931082292911255       2.659599220152145E-002  3.059540762676032E-002  2.399960335676019E-002  0.995804575035215       0.997161189089133       0.989722256717087        1.01669630780272        1.01881695831459       0.989030722723664       0.994556669483334       0.995681792842307       0.992811689671358       0.983136511193172       0.961680084876370       1.012525144844242E-002
  6.317010322910739E-003  0.933747769090597       0.949286584222839       0.946952884764472       3.155803270156924E-002  3.047719421051735E-002  2.852254745992676E-002  0.940525157269183       0.945880781663072       0.942465612836804       5.427610830389482E-002  5.178724687297870E-002  4.921165119689058E-002  0.981894945499021       0.985453002244435       0.985954590624096     