 VARIABLES = "X" "Y" "RO" "U" "V" "P" "M"
 ZONE T="  0.000000000000000E+000 " N=        9944  E=       19548
 ZONETYPE=FETRIANGLE DATAPACKING=BLOCK
 VARLOCATION=([3-7]=CELLCENTERED)
  -19.9782054645671       -16.7460447536127       -13.5432470514743       -10.4462771124608       -7.39483127129757       -4.39431260318683       -1.43672854734527        1.47853524247441        4.40194279230921        7.38347804238703        10.4122197804982        13.5308676756442        16.7310607632789        20.0189460056259        20.0156650185539        20.0123451374732     
   20.0090067226427        20.0056742799471        20.0022854763303        19.9988742323503        19.9954939648514        19.9920871178897        19.9886881104951        19.9853470049941        19.9820070605281        19.9783478910574        16.7317203104092        13.4557822172063        10.1645634122701        6.87452312340184        3.53259687976399       0.170578499054329     
  -3.16443525887912       -6.48474521199279       -9.79114624567630       -13.0836966857758       -16.3754018560739       -20.0188035791356       -20.0155069002833       -20.0121812769038       -20.0088400757232       -20.0054989473046       -20.0021446450312       -19.9987763328347       -19.9953939522161       -19.9920253568386       -19.9886729196427       -19.9853365630757     
  -19.9819979716434       0.999543120264322       0.998024752036951       0.996510667059000       0.995006701128445       0.993457983056448       0.991848144065978       0.990172317347871       0.988434975220019       0.986635989357980       0.984773016185955       0.982832017021046       0.980821535118724       0.978725338570723       0.976556119441418       0.974310004287233     
  0.971979560347417       0.969562222628752       0.967057160606622       0.964462044804125       0.961777232893817       0.958997729784414       0.956115704157975       0.953120008662490       0.950001198995705       0.946788074545656       0.943458905369506       0.939981028889389       0.936396943931137       0.932694496336575       0.928852152510723       0.924834882908160     
  0.920673408455429       0.916362446939093       0.911888053186481       0.907241203179809       0.902415402425165       0.897404076278013       0.892194571915938       0.886774050257028       0.881134779529087       0.875268920468967       0.869177565022044       0.862853407492332       0.856288419961601       0.849472501211861       0.842396706349743       0.835052470966616     
  0.827433349398074       0.819530846374678       0.811336636731555       0.802842287975731       0.794038918018894       0.784918854312750       0.775473182694079       0.765577345522885       0.755320641419299       0.744691696127758       0.733679910825955       0.722278382094794       0.710474852481939       0.698256814135762       0.685617188905077       0.672544407328908     
  0.659024767554995       0.645051142705569       0.630610311848526       0.615685879052457       0.600267064019395       0.584333571993607       0.567873310013055       0.550871206194577       0.533917968887318       0.516931391733435       0.499879274679669       0.482761800625456       0.465578663361416       0.447679872667903       0.430382302554259       0.413683966203274     
  0.397582748900264       0.382062298592337       0.367037574875628       0.352489923349752       0.338414992054265       0.324821336628030       0.311693702671482       0.299032897439013       0.286839629048192       0.275095417042928       0.263775053113786       0.252830960070839       0.242250386191685       0.232020817656055       0.222134875026040       0.212584351654863     
  0.203357472633352       0.194442911435712       0.185835972954814       0.177520343970385       0.169486270071048       0.161716704182750       0.154204755750869       0.146943981104052       0.139928232394297       0.133151251638110       0.126606105081955       0.120287184665792       0.114189245729006       0.108306948375914       0.102635725396334       9.717117402327123E-002
  9.190908230347179E-002  8.684594052934179E-002  8.197799691333385E-002  7.730147373183045E-002  7.289406970609173E-002  6.864926024297299E-002  6.456867608592561E-002  6.065055175103116E-002  5.689498759441781E-002  5.328003648204861E-002  4.981725916450068E-002  4.650454692610126E-002  4.332424295121162E-002  4.024729257384517E-002  3.727057962140870E-002  3.437138027098018E-002
  3.155001872839569E-002  2.881151473789613E-002  2.615866560350706E-002  2.359538690820421E-002  2.112773882220000E-002  1.876328731156207E-002  1.661980600222909E-002  1.455642933881366E-002  1.259269304665158E-002  1.074734080113220E-002  9.044942246715147E-003  7.421244215029436E-003  5.840185807877029E-003  4.403621871145753E-003  3.102707426232001E-003  1.974905447840552E-003
  1.079447320913918E-003  4.831650018690672E-004  2.001894085330817E-004  1.522932452260595E-004  4.207269860951908E-004  1.044252400606201E-003  1.975141008028197E-003  3.124785083935476E-003  4.422679881321724E-003  5.814845729836189E-003  7.497298713827818E-003  9.267074031382215E-003  1.113957511428947E-002  1.302933151798492E-002  1.496584323727241E-002  1.699676512324185E-002
  1.917244226700557E-002  2.145948831070974E-002  2.386774430196276E-002  2.633802364764402E-002  2.887782640591003E-002  3.153091694617696E-002  3.433666082349986E-002  3.729257914228728E-002  4.038829775438437E-002  4.361191313569717E-002  4.695266087646636E-002  5.039876203521854E-002  5.394684885132833E-002  5.759679699913721E-002  6.134131599107268E-002  6.553911254118260E-002
  6.988203129864062E-002  7.436753910668839E-002  7.899254986073774E-002  8.368868600211271E-002  8.852486038971499E-002  9.352727611752318E-002  9.869389456519630E-002  0.104026843678924       0.109516473403415       0.115182192355708       0.121064894612484       0.127214188316917       0.133643110976836       0.140354914719443       0.147346204478628       0.154618282736728     
  0.162174321685203       0.170015424673883       0.178145623525984       0.186568481820486       0.195288532286380       0.204490571600314       0.214033429566910       0.223922945246017       0.234168280861056       0.244777815882867       0.255758806529238       0.267121734522126       0.278877494049727       0.291033756594125       0.303601503187093       0.316593233756427     
  0.330016646119696       0.343881877028597       0.358202580888853       0.372979322187901       0.388223034481925       0.403940112380637       0.420116391897630       0.436762531732006       0.453821474774855       0.471285266973041       0.488828068699260       0.506243159132662       0.523528766813379       0.540687213236528       0.557722121288355       0.574315116223221     
  0.590442311708343       0.606083704303381       0.621237913253432       0.635906717823027       0.650053878571341       0.663690507841371       0.676831623530558       0.689494892058692       0.701700392672817       0.713499322519140       0.724933342801751       0.736010322973082       0.746738395137475       0.757119597214393       0.767162211112796       0.776874946701569     
  0.786266515330735       0.795258791962640       0.803920900852353       0.812257633409670       0.820274867327712       0.827977247384245       0.835369118480787       0.842457745417188       0.849305793313892       0.855943212854725       0.862373122944844       0.868599341557784       0.874625771021922       0.880456436116111       0.886094659311839       0.891543581425217     
  0.896806679133330       0.901888330109873       0.906796291482222       0.911535127558716       0.916109355905415       0.920329594259068       0.924433807539582       0.928420116115785       0.932291408743192       0.936032733587587       0.939641084482539       0.943122827078355       0.946470203561418       0.949686833321503       0.952788072925495       0.955749823420511     
  0.958578752253034       0.961331304745805       0.964004428887911       0.966596289286808       0.969105638437665       0.971531905175304       0.973876274738645       0.976139801910243       0.978325813901630       0.980438227413888       0.982428876650165       0.984364956643685       0.986231809150190       0.988034195297670       0.989776093250369       0.991458811731278     
  0.993077919238394       0.994634700571671       0.996131682485417       0.997624721678179      -1.080762253350022E-003 -8.867797231335917E-004 -1.021478619880591E-003  0.995784483009403       0.997226426823454       0.995776302638070       0.997016892010211      -2.504592400025316E-003 -4.293363413841781E-004  0.995454729331419       0.996232963328138      -2.073545323038073E-003
  0.994393323492289      -2.398888201142908E-003  0.993910114806074       0.992253484790192      -6.597105215711424E-004  0.992672752563900       0.993654272398701      -2.422355990152828E-003 -3.983425849609351E-003  0.994761464176592       0.994921559573982       0.998654763935975      -1.471752420851981E-003  3.145138515294532E-004  0.990922667661451       0.989152593911891     
  0.987378521134033       0.991766237074671       0.997963102024532       0.993246141058414       0.991037051685484       1.246863308498526E-004 -2.074724390844814E-003 -4.072931470630345E-003  0.992653859313773       0.997212060977509        1.00030274098667       0.997935573921583        1.00098348800045      -3.386873917153905E-003  1.331306995207265E-003  0.996339861094693     
  0.996739059111913       0.999300857406337       0.989308258192432       0.989936653542107       0.988085688189078       0.986172195583882       0.990767896208316       0.992544243656362       1.222459474668109E-003 -7.630047274415789E-004  3.878526800811285E-003   1.00208886533956       0.990293110539699      -5.426006810528444E-003  2.588096183437336E-003  0.990772327737301     
  0.987423894559817       0.988814236818986       2.469713025053124E-003 -4.131194400282523E-003  0.991513236515387       0.999713225056578       0.999166794791506       4.051717796925435E-003  0.988941858016193      -2.632476410108434E-003 -3.824409968065086E-003   1.00299841985880        1.00106416465574       0.994664366786693       0.998799411015917        1.00087351240378     
  0.993557203641656       7.379751083302671E-003 -2.521720806129064E-003  0.999437194223194       0.998579976472285       5.684140137691250E-003  0.985458105602997       0.983471730436001       0.991696736773116       0.997819417539790       0.986712077457753      -5.894403998296301E-003  0.988117252490792       9.043217768676210E-003 -5.768752067010902E-004  6.019187935108223E-004
 -5.417744714384823E-003  0.984077353007478        1.00327339602402       0.986955420535058       0.984749175103751       0.997623402398398       0.995590646376899      -1.562045216213794E-003   1.00386540228731        1.00574309593418        1.00160323326746       0.984565596352439       0.982316706885481        1.00070013747400       0.994006795102868       0.985926148585589     
 -4.832742287225586E-003  5.663501277123725E-003  1.758402015767045E-003  7.423120823624030E-003 -7.186642799718325E-003 -1.722123675745782E-003 -1.852499227702595E-004  4.064512721499589E-004  2.048699356854290E-003  0.994543150144605        1.00244117274121       0.995425722518451       0.988082190675144       0.992366132200993       0.981697107319465       0.979537549536487     
  0.982525895096145       3.750415858240843E-003 -5.629311803342862E-003 -7.505600924348852E-003  0.977385563978311       0.989524285092315       5.473544061918408E-003  0.985806288980494       0.990727678670758       0.993503822651312        1.00020462416565       0.999429419373469       3.319659900168387E-003   1.00520232831364        1.00417364758317       0.996389313873406     
  0.998341824816463       6.193869399147111E-003  0.999836997697282        1.00213953786357       1.080937518741542E-002   1.00274700612079        1.00669517304142        1.00443820149291        1.00703717009441       0.989891985774432       0.993027485095422       0.988846396888524       1.503422081656685E-003  7.241283322980204E-003  0.989839030493984       0.985725814416430     
  0.983067281684228       8.821853813001296E-003 -6.107457546409919E-003 -3.904820497344704E-003 -2.622059178434342E-003 -3.892113963461395E-003  0.991171819308476       0.992287047081774       0.980404181088471       0.978207040084314       0.975824039001200       1.106221878933377E-002  0.991852554229495       0.995831771040846       0.994805449286330       0.996903817839458     
  5.075953284063810E-003  1.301032837529052E-002  0.987455141292272       0.987147505262879        1.00306026848151       0.989113638347239       9.123274566069046E-003  0.987153078606452      -4.143164369656958E-003 -8.046727620435859E-003  0.981198027634584       0.979921257221893       1.278456710980298E-002  0.981712726724554       0.977426355103272      -6.112971958133330E-003
  0.985207616941660      -7.565080007002530E-003  1.083374250329372E-002  0.994388179786581      -2.992890697509110E-003  3.556264494592701E-003  0.975140480134325       1.103462193888548E-002 -5.210089554479572E-004  9.814239744272450E-004  1.500324295530787E-002 -1.034203875619271E-003  6.994394529922650E-003  0.978540602606735      -6.384756148355467E-003 -9.094826152562943E-003
  9.018623406438787E-003   1.00540133265971        1.00829416300415       0.979295229163217       0.976839200742721       0.973719251449013       0.984384062439379       0.982238439922286       0.993531639874657      -1.563705385853129E-003  1.295107642439120E-002 -9.840165848968359E-003  0.976508093504102       0.974137895669093       1.488192465141634E-002  4.671748486960833E-003
  8.577573761277456E-003  1.106936765643291E-002  0.972780498309776       0.970389722351311      -8.267793081598257E-003 -1.041029771487367E-002  1.406781776948048E-004  1.300498402914269E-002  0.983548427984362       0.980716774479667       0.982611637175567       0.979979077513336       0.980741251123671       0.980292351234990        1.00871797525227        1.00544438167482     
 -5.902807319663386E-003  9.070798301611281E-004   1.00196951606305        1.00120533133705       0.984616753420919        1.00408188849454        1.00372916035803       0.971637473482189       1.707114355200332E-002  0.981653501157007       0.983046001264911       1.096053329854368E-002  0.998489706260767       0.989385610316928       0.969056527353465      -3.752320967596183E-003
 -5.218517246042322E-003  0.985412557096022       0.995839287245234       1.522968851313252E-002  0.979300064617611       2.722013903482763E-003  1.712248156499470E-002  1.495771067400750E-002  0.973352620149336        1.00769504843248       0.978456464553623        1.00118250477766        1.00011130120928       0.978147921152750       0.997397442057424       1.330043632321006E-002
 -4.335955243622959E-003 -8.305069558665152E-003 -2.675706775370568E-003 -1.005062410387165E-002 -9.721446076142082E-003  3.311497844079863E-003  0.975483646047956       0.975698077274566       0.973114141940823       1.135793705210888E-002   1.00934438488004       0.970652480328121       0.968181224302949       6.802317961597065E-003  0.971544599831653       0.965688862086151     
  0.963446729687791       8.654204728236760E-003 -7.962471586483822E-003 -1.088129662438940E-002 -1.996502455511545E-003  1.938756490360924E-002  1.719899324399525E-002  0.996273615505680        1.00290895143430      -1.188281485755866E-002  0.982779971086497       0.979598551868419      -7.631282674128021E-004 -7.200435881857875E-003  1.482748592349647E-002   1.00182103355845     
 -1.057713583442268E-002 -1.291359852621530E-002  0.977486952826027       0.977001907428605       9.061499905074474E-003  9.659335378566660E-003  0.987422098125551        1.01081549387054       0.990324835811168       1.555272469379482E-002  2.094889144620555E-003  0.969332744092356       0.966835603176545       0.964195878143695       0.961130102672196       1.752646333346598E-002
  1.226234596057182E-004  0.970402778276092       1.366815469984362E-002  1.937752343408701E-002 -1.225291253117683E-002  0.993227298904936       0.994627562758234       0.997369992813805       6.729869839499272E-003 -6.575504701615746E-003   1.00602891956902        1.00599144900849       0.967555657937325      -5.676367664409186E-003 -4.964107877658308E-003  4.288477827501364E-003
  0.970718356264625       1.250770033814167E-002  0.999034715964075        1.00072404838491       2.175660800799606E-002  1.959845912158191E-002  1.726918555765414E-002 -3.878568330387108E-003  2.179233496632984E-002  0.974850320004866       0.972024281636637      -1.467370381245385E-002  0.987792744589760      -1.052043309109215E-002   1.01045046078149       1.561011989845414E-002
  9.057801279456636E-003  1.994653081647089E-002   1.00462724871793       0.968137778677832       0.965554393413974       0.996000167694246       0.962582714050209       2.414025005602223E-002  5.974093324178137E-003  2.207251233698990E-002   1.00862168352418       6.596646218728942E-003  3.920452744672461E-003  3.588643114545721E-003  1.792712287975768E-002  3.115901599055432E-003
 -8.795150940950460E-003  0.990294425245192       0.985301844721763       0.983280932718618       0.985698604148443       0.987736252328642       0.994967794479899       1.470622406285024E-002 -1.758177579225768E-003  0.966154502878614       2.055131598466048E-002  0.969413640113699       0.990832897595459       0.989850681617967       0.987497403043927       0.985286221824220     
  0.988179247917288       0.989114770077869      -1.230632529518258E-002 -3.195894638210915E-003   1.00019453841435       0.984411118267381       0.968255712656856       0.997907206027030       0.996686085265857       2.648177516416296E-002   1.00809214459994        1.00632120044834        1.00985782638455        1.01155316803847      -1.298488926301235E-002 -1.558569414126777E-002
 -8.399072456680345E-003  1.988424130756131E-002  1.737441335034139E-002  1.462497966156669E-002 -1.001192110255777E-002  0.990612194028049        1.00896869892560       5.986654543491701E-003  0.980415143397837      -7.139275720331088E-003  0.992297765745959       0.993001217865551       0.994151400327518       1.443468275562361E-003  0.972269334624212       1.261291182371421E-002
  1.218049058284425E-002  0.980871923101065       0.970649132112624       0.959264211615410       0.963012984916322       0.960124508966384        1.00411922914511       0.964659359295164       0.967752055377293       0.973633051580341       0.971953180634117       0.975619561454837       0.976531762213913       0.974916209898422       0.973282216332984       0.957136643270495     
  0.953851738746979      -5.263295760399854E-003 -1.276647614127604E-002   1.01205739565671        1.01326217342729       0.982390772592531       0.979822873149516       6.357131130093337E-003  5.143949002697787E-004  8.022359927432049E-004  4.710364957914114E-004 -6.214309836112193E-003   1.01134577419178        1.00704324005453      -1.037908034122365E-002  2.903695089726213E-002
  2.619269199236335E-002 -1.504028163992738E-002  9.295861785351189E-003 -1.545124365763012E-002 -1.838170473858003E-002  0.991995341693409       0.990091587494790      -1.255145173995404E-002 -1.530129971747509E-002  2.664143193684432E-002   1.01095347447819       1.192916177250292E-002  0.986480826368853       0.987067879106661        1.00301723017553        1.00901798167723     
   1.01188490788204       0.987687947221981       0.961824732078075       0.958873368468174       0.955637917950391       0.952100499984453      -2.928661371635574E-003  0.977828408734970       0.984915126162657       0.984331328416514       0.982619618235524        1.00916638251925       0.977497996504647      -1.226247904104044E-002  0.984086152475324       0.967074703196572     
  0.968988537899667       0.970337363038330       0.971508160395973        1.01105862916468        1.01163221265721      -8.771358774550084E-003 -1.797940206431798E-002  0.963421096725061       0.973837040765288       0.970909550467836       6.336386763890148E-003   1.00716225403469      -4.299963326306216E-003 -7.942836133514129E-003   1.01185663395692        1.00417406465589     
   1.00204573293471        1.01284406613570       2.271853812042422E-002  2.930174588332834E-002  2.659541779585982E-002 -9.326169653827364E-003  2.243371937059510E-002  2.422473733543960E-002  2.334075981897210E-002  0.978094351211945       0.976706509684696       3.343284008706068E-003  2.795415330262549E-003  0.999058435670125       9.504401120938574E-003   1.01393235656341     
  0.960882000975736       0.987623340294012       0.993379082302074       0.995227102670023       0.957687010712087      -1.206476541421616E-002 -1.515712421884807E-002  0.964580332688576       0.980218101079800      -1.521875237516171E-002  0.981249446282362       0.984466625541176       0.990844073378186        1.00646572228978       0.972925798079170       0.969095447578322     
  0.966023414288137       0.963729461345713       0.967710520024406        1.01330213573490      -7.457468967657389E-003 -1.098331745594091E-002  1.170716704635074E-002  2.431921648170247E-002  2.027176206898178E-002  1.749232765105824E-002  3.178618995249295E-002  2.934180218363747E-002  2.788952844774747E-002   1.00500448416283       1.453115927552995E-002 -1.726945401216635E-003
 -1.723260610866392E-003   1.01413813108517        1.01644669127494      -1.535136398556168E-002  0.954571387071267       0.951447486369875       3.221144180896390E-002  2.993695958231365E-002  2.768953384027324E-002 -1.253039131314572E-002   1.01381465340591        1.01750592394587       0.975365112751610       0.969910767723992      -5.390420098613083E-003  9.023818817120085E-003
  6.702074005263433E-003 -1.838656253370511E-002   1.01405506635545        1.01515004419472       2.466359576878152E-002  2.126184250108849E-002  0.965887846233898       0.967407873510140       0.968904078184964       0.969088167008289       0.997769173921709        1.00551658067237        1.00824651221926        1.00404545875727      -1.060096306311422E-002 -1.309095249512381E-002
 -1.526359411311079E-002  0.948254795530245      -1.075834282279954E-002 -1.416984149022250E-002  0.975266259394317       0.956061735433271        1.00902461517499        1.01186212874983       0.981123500811626      -1.407389923406829E-002  0.991236668671758      -1.774183205242402E-002 -2.103660934678877E-002  3.511334883895716E-002  3.293949533526754E-002  3.080749440163217E-002
  2.883803123645375E-002  0.972315581117045       0.975119212277469        1.00096644034152       0.999717373908198       2.359574377447837E-002   1.00716522302283       2.281440614778004E-004  6.123142876498516E-003  3.278186238605347E-003  0.966617712367643       0.969002508713004       0.978277895043484       2.442147775620328E-002  1.830969754082913E-002  1.565850672603701E-002
  0.999752491464859        1.00229179622661       0.998833278401777        1.00592948571597        1.01461596180682        1.01481705433098       1.272769035122015E-002   1.00354970646688       3.467943849853758E-002  3.179270019615452E-002  0.953002507006713       0.949736843339966        1.00537875304786       0.946158485999422       3.803176630122903E-002  3.580209884123765E-002
  3.368984940443994E-002   1.00898975366239       0.960820343281272       0.957325247328306       1.879319290212804E-002  0.962452900825689       0.984948628385880       0.976971127176991      -1.676972057877882E-002  0.965514084715963       2.061380734035814E-002  1.757828410704056E-002  0.964162656402737       0.966157506740792       7.135886267750613E-005 -7.056267553818711E-003
 -1.407535587240015E-002  9.734928920461381E-003  0.963806968932264       0.961598238119090       0.967937843521149      -1.761102481837192E-002  8.717100552350724E-003  0.954522489990954       1.439954938111290E-002  2.206783016725528E-002  2.546817384955814E-002 -1.246124860193801E-002 -1.540487043313403E-002 -1.384656440703926E-002 -1.717733973448344E-002 -1.764104190085240E-002
  0.954536825657431       0.958721738707766      -2.167934441929566E-002  4.105184350628381E-002  3.865141337775095E-002  3.631222546292008E-002  3.452665275885185E-002  6.693754785260060E-003   1.01238120728164        1.01695744577649        1.01890659770604        1.00973791860270        1.01663989199917       0.971696963713244       0.975098343208937       0.960521659912132     
 -2.247853267895123E-003  3.781305038164425E-002  3.504396044369832E-002  3.201439715284931E-002  0.951662499442393       0.947881422363692       2.398984231902522E-002  0.996693661222912       4.174327070782104E-003  3.842410495094874E-003 -1.802368368567018E-002 -1.583397527886360E-002 -1.770929614240616E-002  0.962507408905681       0.958601420347388       0.978078152089518     
  6.008146514154844E-003  3.878425778967591E-003  1.301300553767873E-002  1.139758709561762E-002  0.943318014326596       0.948525205655035      -1.841776784873000E-002 -1.835194582129420E-002 -1.764426664510983E-002 -2.143818507662528E-002  0.964824939316655       4.422833448454547E-002  4.177858818607375E-002  3.884994068070665E-002  1.941684568482185E-002  0.954210352326540     
  0.957634647572039       0.959806664788117       0.950667973057744       0.956368597562977       0.952806387636113       0.949189539964835       8.032155784520729E-003 -1.237323290224847E-002  0.997720884864414       0.974313488947078       0.973098564908093      -2.036347501503103E-002 -2.032823893139657E-002  0.970695642689478       1.601079210738777E-002  1.264028422782596E-003
  0.981399328255478       0.984445186677522       1.648365678249642E-002  2.085445436568521E-002  1.765071347236064E-002  1.427701084835340E-002  4.105086082380910E-002  3.840433858233971E-002  0.978726731046171       0.973512857145773       9.869378446964703E-003  6.563375750835673E-003  0.945072662061986       0.941570671049141       7.806284052817346E-004  1.098996956632187E-002
   1.01419785766433       0.960715748162960       0.956581361013539      -1.932002381931295E-002 -2.156429200533186E-002  0.937969213126488       0.934316358193618       2.299190121681416E-002  0.947127720134220       3.554419378051134E-002  3.236019029281078E-002  2.676356249990255E-002  4.752877850696582E-002  4.514173152032810E-002  4.269626885172202E-002  4.063088260038199E-002
 -4.011486189796793E-004  0.987656286911705       0.990885400177376       0.955041340454948       3.567470004777728E-003 -2.114216110976548E-003   1.01418704773770       2.431052370862423E-002  4.433404648966906E-002  4.172914793667881E-002  3.920942516281887E-002  2.015169055411027E-002  7.191361340183914E-003  1.333022461995122E-002  0.943612266191561       0.940019711556189     
  0.942346208787545       0.987617207103175       0.994083198815387       0.994149609252355       0.945401762075469      -2.385049733895413E-003  0.958651156677084       0.951293574690853       0.947518493817744       0.988629051703981       0.992318335772628       0.938243679024492        1.01074551544429       0.990890537286813       0.934437033232963       0.956607117390724     
  0.954590428830642       0.952438287368817       0.971643946412827       0.945668797556411       0.957489066195262       9.980423643458088E-003  6.377850345827211E-003   1.01649572059189        1.01507869697800        1.01651091536904        1.01874260641942       6.559305077963873E-004 -1.582098323887309E-003  1.063259584133901E-002  4.769498924192701E-002  4.493601293322869E-002
  4.238906944504693E-002  4.090479258677073E-002  0.950243424519459       0.946120521731574       0.930422961080578       2.111654221067307E-002  1.777294183410059E-002  2.680177664965733E-002  0.989568914172750       0.978300111443700       0.982179804867011       0.985916604471509       0.975011406193267       0.974998483486343       5.093422845337039E-002  4.851029348619887E-002
  4.605468153946911E-002  4.368823657706274E-002  4.061852056762207E-002  0.953558985749435       0.955964220757601       1.425751474846691E-002  1.702378095530787E-002  0.961527548916328       0.993243021109386       0.964050271062884       0.960026271314415       0.966604036475117       0.939861559242627       0.998117147345575        1.00111592031727       0.994285541862543     
  0.942220156192222       0.938525242379090        1.00197819580543       0.948606822446556       1.368066747321909E-002   1.01766485656863       2.841641798158589E-002  2.979669729364174E-003  0.936263026325882       0.952558996686640        1.00040314068929        1.00315412695240        1.00627968220745       0.967400841485748       0.944720291764201       0.949577787087084     
  0.945015570723870       6.618055142868937E-003  5.120970913884717E-002  4.830425671549930E-002  4.511213936337544E-002 -9.191898023618352E-003 -1.228447595891915E-002 -1.569532833296867E-002 -5.476777923253963E-003 -7.842746159128250E-003 -3.535550290733311E-003  0.987478290265928       0.979448130171523       0.999453953173187       0.944324946225148       0.936447696009856     
  0.932421206887809       2.483930772902558E-002  2.875841055908740E-002  2.408311309110419E-002  0.996978354652897       0.998320897189466       0.990854866455735        1.01802260417250        1.02010294150336       0.990382390668013       0.995910714322739       0.997031261934681       0.994159713708767       0.984257827744616       0.963039325164751       1.011894126006103E-002
  6.286706486692830E-003  0.934474532238183       0.950642512316933       0.948302408097215       3.169596719882430E-002  3.060289204919083E-002  2.862505697654231E-002  0.941875242776673       0.947232924397344       0.943809838070271       5.446748734297799E-002  5.196787833407653E-002  4.938157871997998E-002  0.983252189471541       0.986807809601450       0.987304845503751     