 VARIABLES = "X" "Y" "RO" "U" "V" "P" "M"
 ZONE T="  0.000000000000000E+000 " N=        9944  E=       19548
 ZONETYPE=FETRIANGLE DATAPACKING=BLOCK
 VARLOCATION=([3-7]=CELLCENTERED)
  -19.9782054645671       -16.7460447536127       -13.5432470514743       -10.4462771124608       -7.39483127129757       -4.39431260318683       -1.43672854734527        1.47853524247441        4.40194279230921        7.38347804238703        10.4122197804982        13.5308676756442        16.7310607632789        20.0189460056259        20.0156650185539        20.0123451374732     
   20.0090067226427        20.0056742799471        20.0022854763303        19.9988742323503        19.9954939648514        19.9920871178897        19.9886881104951        19.9853470049941        19.9820070605281        19.9783478910574        16.7317203104092        13.4557822172063        10.1645634122701        6.87452312340184        3.53259687976399       0.170578499054329     
  -3.16443525887912       -6.48474521199279       -9.79114624567630       -13.0836966857758       -16.3754018560739       -20.0188035791356       -20.0155069002833       -20.0121812769038       -20.0088400757232       -20.0054989473046       -20.0021446450312       -19.9987763328347       -19.9953939522161       -19.9920253568386       -19.9886729196427       -19.9853365630757     
  -19.9819979716434       0.998173038061562       0.996650068458922       0.995131749568337       0.993623922299375       0.992071579509741       0.990458342446458       0.988779368699947       0.987039172585830       0.985237656072693       0.983372501771456       0.981429687613250       0.979417797259654       0.977320619519188       0.975150882359400       0.972904734620933     
  0.970574766485557       0.968158435508481       0.965654930046289       0.963061936883777       0.960379824133108       0.957603609181852       0.954725476358007       0.951734300005507       0.948620657078207       0.945413298322365       0.942090527723560       0.938619748702554       0.935043373545424       0.931349269518693       0.927515953567430       0.923508490749639     
  0.919357543240248       0.915057859863438       0.910595558285294       0.905961675458709       0.901149781839601       0.896153379233229       0.890959922057676       0.885556693654870       0.879936082272966       0.874090380861778       0.868020791576832       0.861720154040526       0.855180593812244       0.848392174436976       0.841346111565382       0.834033995860071     
  0.826449518791040       0.818584318209161       0.810430184451500       0.801978779884903       0.793221294318681       0.784150091375841       0.774756266227402       0.764915887763380       0.754717652619681       0.744150084397179       0.733202427202683       0.721867544561862       0.710132919637693       0.697985726065546       0.685418472664040       0.672419138496611     
  0.658973515944219       0.645073870865340       0.630706344942322       0.615853857754589       0.600504858803572       0.584638273846810       0.568241148673425       0.551297530883130       0.534395531337727       0.517453011867116       0.500437682437563       0.483349605962902       0.466188428292464       0.448304580861767       0.431013936128448       0.414315488896050     
  0.398208071990266       0.382676219853836       0.367635620679585       0.353068293906086       0.338970519306517       0.325351458782066       0.312196372173783       0.299506560111656       0.287283179956178       0.275508106216031       0.264156415911983       0.253180703041281       0.242568442144231       0.232307316032578       0.222390131222293       0.212808841357022     
  0.203551799054640       0.194607787404122       0.185972225951769       0.177628862484662       0.169568012054073       0.161772661407493       0.154235977968914       0.146951568842626       0.139913330115649       0.133115040384239       0.126549794203866       0.120212010462955       0.114096467434146       0.108197843246240       0.102511586598876       9.703330695290698E-002
  9.175880117699635E-002  8.668456618841312E-002  8.180685240304698E-002  7.712188061605468E-002  7.270746478385373E-002  6.845688590229539E-002  6.437178030075716E-002  6.045037871044329E-002  5.669277463128308E-002  5.307700628762176E-002  4.961463389179684E-002  4.630353540140572E-002  4.312605422693325E-002  4.005317792313681E-002  3.708183220554231E-002  3.418939581103652E-002
  3.137628138046292E-002  2.864759288454351E-002  2.600622593361094E-002  2.345620027459908E-002  2.100367723904588E-002  1.865631684357394E-002  1.653097414905148E-002  1.448794754007197E-002  1.254682004023730E-002  1.072632744289142E-002  9.050835959959090E-003  7.457469150972300E-003  5.911938460663028E-003  4.515076935353945E-003  3.259663804481502E-003  2.184154987176565E-003
  1.347924687776136E-003  8.151275788519875E-004  5.928788081833963E-004  6.089873128128087E-004  9.655473682273347E-004  1.680385199590885E-003  2.702174806426194E-003  3.938527145642551E-003  5.318066401490600E-003  6.786671078259525E-003  8.551564653912333E-003  1.039992001549683E-002  1.234894888214754E-002  1.431066246943898E-002  1.631654232975646E-002  1.841632728660921E-002
  2.066209478284965E-002  2.301934800477961E-002  2.549824248359769E-002  2.803794423667063E-002  3.064631735395498E-002  3.336835054654640E-002  3.624434345255842E-002  3.927162004059523E-002  4.243944557466178E-002  4.573556135117614E-002  4.914891044617734E-002  5.266743047180124E-002  5.628766742371056E-002  6.000947784655060E-002  6.382541370247272E-002  6.810068866935462E-002
  7.252108663507047E-002  7.708394948818424E-002  8.178606246264607E-002  8.655789074177075E-002  9.146943655838960E-002  9.654721168608357E-002  0.101789028810997       0.107196929706088       0.112761017667902       0.118500846799943       0.124457685482222       0.130681542957057       0.137185347324427       0.143972110509672       0.151038122248916       0.158384423464442     
  0.166013939821390       0.173927502669060       0.182128893319927       0.190621411296331       0.199409322956925       0.208678415690201       0.218286003519023       0.228237572418983       0.238541930273487       0.249207070230958       0.260239828782293       0.271650252421864       0.283448764092003       0.295642513958095       0.308241932508237       0.321258924627343     
  0.334700534256294       0.348576200046510       0.362898823915562       0.377668163601956       0.392894298079191       0.408582718065833       0.424718369392833       0.441310950053821       0.458302690300757       0.475684844036961       0.493132662710206       0.510440742073591       0.527607791172077       0.544636629941259       0.561531411651122       0.577977290860357     
  0.593951837518119       0.609436493430332       0.624431122917083       0.638938663216580       0.652924407537323       0.666400414161031       0.679382498475745       0.691888987379535       0.703940487484221       0.715588223552997       0.726873900176283       0.737805788172223       0.748392355144244       0.758635995561276       0.768545208480267       0.778128860618932     
  0.787395769117347       0.796269014777338       0.804816926493439       0.813044313566647       0.820957020490835       0.828559642938219       0.835856453307302       0.842854584495000       0.849615854206802       0.856169784819042       0.862519400871857       0.868668410652111       0.874620602403928       0.880379884873637       0.885949475206984       0.891332415336161     
  0.896532085078522       0.901552761977494       0.906402071278893       0.911084492859018       0.915604469240530       0.919774838318828       0.923830736373898       0.927770309804497       0.931596422140283       0.935294307302934       0.938861005852887       0.942302822799284       0.945612101213492       0.948792428606547       0.951858997218988       0.954787980974716     
  0.957585968864907       0.960308791131706       0.962953437843009       0.965518097655423       0.968001535878758       0.970403182137438       0.972724200181842       0.974965620947081       0.977130722738273       0.979223366475713       0.981195801010745       0.983114572798470       0.984965134346383       0.986752179230902       0.988479626270264       0.990148747574263     
  0.991755119007040       0.993299984462313       0.994785820742442       0.996268055461470      -6.463007206745440E-004 -5.125682087474134E-004 -5.178171933682515E-004  0.994404521116374       0.995850364775353       0.994398126955735       0.995675399435166      -2.029247945561453E-003 -1.143030584277194E-004  0.994122225067915       0.994904027265794      -1.713988572870054E-003
  0.993010585447634      -1.981630764617201E-003  0.992586947784176       0.990942381383281      -7.041062221773342E-005  0.991286484938505       0.992271611624988      -1.878799359158216E-003 -3.524772534509658E-003  0.993438434355276       0.993608149185877       0.997306582920315      -1.169813167972956E-003  5.708367126935113E-004  0.989533194709245       0.987760151712936     
  0.985983281101787       0.990380206968235       0.996626979998147       0.991933732414802       0.989741310319608       8.104686884328077E-004 -1.425251793690678E-003 -3.563889618912186E-003  0.991271363899633       0.995889206511918       0.998952847693126       0.996564118639194       0.999625711174722      -3.040328855441533E-003  1.532342814858487E-003  0.995034854372122     
  0.995365626139548       0.997932379828012       0.988019828413490       0.988547698105791       0.986693924605070       0.984777599905925       0.989467019329480       0.991249419533103       1.991838798061685E-003 -2.963566993941132E-005  4.808470851654407E-003   1.00074455319167       0.989015576857843      -4.937355714028636E-003  2.738845705886436E-003  0.989386685601026     
  0.986152200828759       0.987538417071261       3.319797691059460E-003 -3.550718766950530E-003  0.990130662316574       0.998347198573925       0.997836812949605       4.157058691295538E-003  0.987553777099357      -2.342003407068064E-003 -3.420637071107342E-003   1.00165086744872       0.999728604188588       0.993285910865287       0.997431448008373       0.999511439441389     
  0.992178492755033       7.409746161178533E-003 -1.808012257123762E-003  0.998096784577694       0.997265307713656       5.748431029573503E-003  0.984203055344592       0.982233674453147       0.990419862952979       0.996522089450415       0.985452553447385      -5.356553626169828E-003  0.986854740451735       9.047749598223112E-003 -3.309367312798672E-004  7.950680603817645E-004
 -5.027152184500045E-003  0.982679537714404        1.00194003121465       0.985564682852249       0.983355722500365       0.996252965915431       0.994215996598305      -1.325106619971835E-003   1.00252562632026        1.00441267980339        1.00024483692117       0.983322694089761       0.981091159078747       0.999378664635311       0.992715262626034       0.984678802893671     
 -4.498729663380121E-003  5.717241961171159E-003  2.645720119077188E-003  7.447475956304728E-003 -6.809303195461730E-003 -9.545483832116464E-004  1.066596819460002E-006  1.214004028163253E-003  2.192614097397814E-003  0.993168061034471        1.00111581056926       0.994139151033302       0.986695309283943       0.990987440336988       0.980297195071631       0.978136301720350     
  0.981129863810623       3.847909210857079E-003 -5.181855056590016E-003 -7.006633011975014E-003  0.975983180096138       0.988261060186900       6.483750743112042E-003  0.984408977573884       0.989465548294178       0.992128762460841       0.998899027223370       0.998140438172095       4.287901612084800E-003   1.00386198387956        1.00282533605454       0.995017079727598     
  0.996974269683557       6.232190416565597E-003  0.998472554686057        1.00078170889249       1.078791483072350E-002   1.00143511468835        1.00535466955246        1.00311666758076        1.00572167512240       0.988509483545034       0.991753202039275       0.987592589191213       1.641110909274733E-003  8.332582778700170E-003  0.988453709653843       0.984336500485473     
  0.981675160393242       8.825461811342477E-003 -5.495130059920664E-003 -3.175008579561965E-003 -2.392542042898840E-003 -3.612028952472188E-003  0.989793561377190       0.990912368495352       0.979006583102547       0.976808092033394       0.974423767606095       1.230603725881286E-002  0.990593815259885       0.994459995446467       0.993434278196184       0.995623787125343     
  6.125836683202719E-003  1.432035809864547E-002  0.986203853876453       0.985905988512354        1.00170552870184       0.987733164730775       1.029332681424654E-002  0.985768836596469      -3.476380165867718E-003 -7.474019314962168E-003  0.979803157466908       0.978716238980718       1.273855330654431E-002  0.980488057386871       0.976245460940035      -5.428855629480275E-003
  0.983973345658526      -7.129557827159579E-003  1.081055151152410E-002  0.993118606592156      -2.188595591056356E-003  3.645846976661233E-003  0.973980207888097       1.231194554307462E-002  3.241072553969062E-004  1.907481670199268E-003  1.637748736346703E-002 -8.528159593406746E-004  8.125379615228492E-003  0.977355551730968      -6.063221116015240E-003 -8.732695461889661E-003
  1.022754630525565E-002   1.00405284956905        1.00695444516129       0.977899807728743       0.975443171888400       0.972322864566902       0.982996556421802       0.980848761752424       0.992161007585079      -6.795155090736382E-004  1.428409877765505E-002 -9.355429155968091E-003  0.975339523243133       0.972991261388483       1.481437043907956E-002  5.762180698540195E-003
  8.580247938617324E-003  1.237229730044999E-002  0.971643005618984       0.969275747314347      -7.626647767636826E-003 -9.806822409738273E-003  1.105802186025208E-003  1.295828222534348E-002  0.982319651203329       0.979515209576525       0.981401759867710       0.978793714360465       0.979348785548648       0.978902883792725        1.00739686062230        1.00413660085850     
 -5.143688919362264E-003  1.040471113790410E-003   1.00067344628372       0.999925321700370       0.983401501107857        1.00272888229858        1.00237486601737       0.970514168588965       1.698459699322623E-002  0.980461576078361       0.981849782192115       1.093529571738042E-002  0.997217290632950       0.988136712324891       0.967955978914603      -3.528516026110417E-003
 -4.947610958551305E-003  0.984028834086410       0.994576056419595       1.516336882419472E-002  0.978125367286822       3.730008049498433E-003  1.856504976313102E-002  1.635503812865728E-002  0.971951097101988        1.00636311193753       0.977064225463665       0.999822353753155       0.998749698192146       0.976971313577987       0.996030399072699       1.325301172859029E-002
 -3.491954470629896E-003 -7.597572655113385E-003 -1.753674147831736E-003 -9.510285570133357E-003 -9.296988407311961E-003  3.395092761290029E-003  0.974080535858290       0.974542560988610       0.971981999386444       1.132936798425163E-002   1.00801191717349       0.969251789937779       0.966781543462370       7.973946854328080E-003  0.970146520397983       0.964290587085937     
  0.962049685729343       8.655127086175364E-003 -7.652744170099339E-003 -1.053494171628254E-002 -1.817732876918940E-003  2.090056518659886E-002  1.866629689336726E-002  0.994907011620102        1.00155313123317      -1.136362505717876E-002  0.981394306288160       0.978213495798156       2.406534913313601E-004 -6.393778913753209E-003  1.625051043632459E-002   1.00046400110667     
 -9.908321023234152E-003 -1.228031430095813E-002  0.976321799825713       0.975852118200686       1.031087612934637E-002  1.095865228994805E-002  0.986193369375224        1.00948318015400       0.989085525361016       1.548859818576325E-002  3.143091157413676E-003  0.967935589674323       0.965439630748818       0.962801047335430       0.959737008597209       1.744239106032138E-002
  2.531954560545487E-004  0.969294772249415       1.361972681134685E-002  1.927347233070028E-002 -1.177835883247260E-002  0.991974469093221       0.993380402339834       0.996113809400543       7.942127091595697E-003 -6.312478890938772E-003   1.00468020650237        1.00464257685945       0.966474392181631      -4.795382440845316E-003 -4.745355163615688E-003  5.419993577706188E-003
  0.969323739551643       1.247357807421514E-002  0.997672698312697       0.999366434559118       2.333918167442271E-002  2.113596452551209E-002  1.876173377259080E-002 -2.920653835527404E-003  2.167212571865572E-002  0.973709668739913       0.970907997987679      -1.414474851733687E-002  0.986576524039443      -9.792605139239716E-003   1.00912612148604       1.554885539977591E-002
  9.057175956912819E-003  1.984499383103282E-002   1.00327586648070       0.966744455661544       0.964162353522269       0.994760559016219       0.961193082288471       2.578635298456706E-002  6.011546789893038E-003  2.367735553037605E-002   1.00727965922061       7.851900771958378E-003  5.095321469956844E-003  4.808680180163498E-003  1.784530045374332E-002  3.194854030918628E-003
 -7.948545940209757E-003  0.989069527422427       0.984095021679593       0.982090897078470       0.984497554990298       0.986531589336536       0.993601722563180       1.615529989529062E-002 -7.140188806590718E-004  0.965081239187657       2.045205044477487E-002  0.968023138240523       0.989458768118665       0.988472888013108       0.986116748056585       0.983906170810061     
  0.986802174606522       0.987741225064559      -1.189817063937971E-002 -3.019432693077596E-003  0.998930378928909       0.983229896753818       0.967159970848457       0.996545402548221       0.995325070870400       2.818634835790402E-002   1.00678863201342        1.00502480442284        1.00854773231691        1.01023822005442      -1.228895456071695E-002 -1.492054174214581E-002
 -7.643990426351262E-003  2.144529085359295E-002  1.889125450947625E-002  1.609867909976257E-002 -9.232788178046118E-003  0.989401952959744        1.00762592016160       6.019638645192261E-003  0.979240148490014      -6.222839119293165E-003  0.991058119961031       0.991769544745515       0.992934852515075       2.533645360803533E-003  0.970878444802872       1.396611811331909E-002
  1.356080421510873E-002  0.979710491509446       0.969262389433430       0.957878463037450       0.961976315923156       0.959117283252838        1.00281917798992       0.963609617956670       0.966365233138447       0.972246473317495       0.970570486539429       0.974228642536141       0.975145642610273       0.973533401155045       0.971903337308865       0.956160674384561     
  0.952910582022928      -4.271019565000664E-003 -1.201590139898158E-002   1.01073062022536        1.01193331759461       0.981010368472470       0.978442726574998       6.386615331898710E-003  6.286278574733937E-004  1.940628921462794E-003  1.658536366546881E-003 -6.001254253108065E-003   1.01000857626352        1.00569653929501      -9.494687363790831E-003  3.081664459144405E-002
  2.790361688510859E-002 -1.458171519166640E-002  1.063167611199750E-002 -1.472545238837730E-002 -1.767907790745944E-002  0.990625269827462       0.988722202378644      -1.198370982363146E-002 -1.470285388809711E-002  2.649796202339424E-002   1.00965440344788       1.333552380983242E-002  0.985104591218130       0.985694658333610        1.00174645685343        1.00772583368228     
   1.01059684595059       0.986319839414257       0.960802367925043       0.957881102091632       0.954678878722734       0.951178660592168      -1.830885551799432E-003  0.976686185252737       0.983539304836442       0.982953682476642       0.981242408862142        1.00782337843718       0.976115259259793      -1.144375541549768E-002  0.982713361601574       0.965684536554434     
  0.967606076859694       0.968958624145160       0.970132536432822        1.00972362847284        1.01029411311356      -7.822418149051536E-003 -1.747220274470524E-002  0.962386933380560       0.972713204186700       0.969809714106270       7.632498242308176E-003   1.00587804350275      -4.126358956640487E-003 -7.687037788567008E-003   1.01051844647447        1.00288740447226     
   1.00079008271136        1.01153845258075       2.434598534971018E-002  2.914645938371216E-002  2.646246914465407E-002 -9.077123858136507E-003  2.231638967440673E-002  2.409149320043480E-002  2.322551854965623E-002  0.976961541354201       0.975327844250062       4.605178597753534E-003  2.865003048358857E-003  0.997810460641038       9.505182308900266E-003   1.01260088908454     
  0.959873251011602       0.986437248898250       0.992013777522144       0.993868349034758       0.956298954349349      -1.115087144090840E-002 -1.474107072935275E-002  0.963193619826264       0.978842670810443      -1.444561268779721E-002  0.980103085558798       0.983309069968782       0.989653723438685        1.00511794264774       0.971816073965236       0.968005300854800     
  0.964964305519415       0.962701219130545       0.966640085022425        1.01198397718596      -7.250492541527557E-003 -1.069259246542310E-002  1.313790478521832E-002  2.597441346539085E-002  2.185684297375776E-002  1.903475957619465E-002  3.363361671461983E-002  3.114144252633829E-002  2.966778202082607E-002   1.00374190805037       1.603088569502577E-002 -1.581866051031566E-003
 -1.591363166129123E-003   1.01282733044062        1.01513499878389      -1.452680526837511E-002  0.953187430241577       0.950067896425551       3.204646358406433E-002  2.978946000437650E-002  2.756075823566610E-002 -1.224808791435074E-002   1.01248073807142        1.01618053583955       0.974236968292798       0.968829045640828      -5.217686075713961E-003  1.038902929501547E-002
  6.730040525519711E-003 -1.775823675173667E-002   1.01276121259444        1.01386720891619       2.453523762331699E-002  2.116599693274451E-002  0.964506238289032       0.966029872026668       0.967528291674534       0.967716878223088       0.996539536420238        1.00424145679762        1.00697552588732        1.00279870718205      -9.620620352218973E-003 -1.222524407629681E-002
 -1.438363050036233E-002  0.946880204861320      -1.051344018151350E-002 -1.389563751526485E-002  0.974146487521927       0.954679762197103        1.00768209434690        1.01052448177482       0.979754598392761      -1.375141618156128E-002  0.989872656216974      -1.729910803449067E-002 -2.054889142212287E-002  3.494084871905583E-002  3.278265524240561E-002  3.066597771943107E-002
  2.871137313849706E-002  0.971222142395523       0.974012636180039       0.999727046344878       0.998496459970851       2.525568787469008E-002   1.00591365681389       1.454754054107573E-003  7.454137997494227E-003  4.579886837351057E-003  0.965569875104961       0.967941147922540       0.977157488710907       2.430949704913739E-002  1.823086307619286E-002  1.560280421596744E-002
  0.998395117989956        1.00093710379433       0.997477230270908        1.00468980786980        1.01328258906760        1.01348382340728       1.270068714427934E-002   1.00219633411626       3.659864886508021E-002  3.365119661109596E-002  0.951624010685469       0.948362832671470        1.00402909039520       0.944789562728456       3.785320331038690E-002  3.563832396522049E-002
  3.353966692573585E-002   1.00775015787024       0.959437376067731       0.955945540957753       1.871889861709667E-002  0.961073508101494       0.983583036562049       0.975599160174455      -1.637263148604231E-002  0.964485109624279       2.222923224901240E-002  1.915053839512310E-002  0.962786583095817       0.964783915315316       1.336139906571775E-003 -6.033486493173283E-003
 -1.312457355628781E-002  9.736825040418349E-003  0.962787170899068       0.960602073115406       0.966899206338922      -1.704337720705880E-002  1.010600039524381E-002  0.953144906726839       1.592963749907566E-002  2.197592277232482E-002  2.535846260427893E-002 -1.212774627672041E-002 -1.504357495227622E-002 -1.346849101835823E-002 -1.682701678125968E-002 -1.685702583741687E-002
  0.953164101057493       0.957345360196043      -2.100858119603915E-002  4.086813000682125E-002  3.848231420825943E-002  3.615465169811363E-002  3.438336505281545E-002  6.721487170930214E-003   1.01110769967768        1.01566937769088        1.01762854707274        1.00845482332544        1.01537229218010       0.970623609675811       0.974008832805837       0.959148816082717     
 -1.083227343944679E-003  3.980673991639259E-002  3.697851275748800E-002  3.388594029601582E-002  0.950289202079637       0.946514266826577       2.568966299320145E-002  0.995481166727115       4.222926200134629E-003  3.892794993862704E-003 -1.764523722719642E-002 -1.552193437938392E-002 -1.740604302780533E-002  0.961137516206613       0.957235755980119       0.976689209168443     
  7.365083837866517E-003  5.230034188443639E-003  1.298982895646101E-002  1.285382996099173E-002  0.941959541942186       0.947646217513691      -1.758742576715495E-002 -1.743681488362629E-002 -1.689260162451015E-002 -2.068379288881885E-002  0.963458077252421       4.404074977969907E-002  4.160454754739182E-002  3.869171576644751E-002  1.934729438626763E-002  0.953269897888416     
  0.956658945731849       0.958815533143660       0.949766571430951       0.955410893601819       0.951885903726211       0.948307982658876       9.443085131069817E-003 -1.212757027180359E-002  0.996524906781082       0.972938003981566       0.971726822237008      -1.998594020334347E-002 -1.990831628339880E-002  0.969648495809894       1.596097420284652E-002  1.339197509640485E-003
  0.980268734597465       0.983305829899311       1.643842394091316E-002  2.250360512551956E-002  1.925640521663329E-002  1.584235503014488E-002  4.311771136529410E-002  4.041662302414427E-002  0.977615451500919       0.972458857840948       9.872499487880500E-003  6.591624997468324E-003  0.944231662413467       0.940768072412136       8.554465619243076E-004  1.247793780245323E-002
   1.01286452805863       0.959353064574872       0.955223099530180      -1.898012445942852E-002 -2.123492549791527E-002  0.937207231343810       0.933596413370044       2.290360166350430E-002  0.946265820755414       3.749558478963005E-002  3.424386068636438E-002  2.665623563664227E-002  4.733883323768263E-002  4.496444987497829E-002  4.253186343715693E-002  4.047789142018202E-002
  8.961005899057260E-004  0.986491086859925       0.989714997725817       0.954103243616081       3.619444465488739E-003 -2.002000237990539E-003   1.01292886349282       2.603791857065120E-002  4.646967111104809E-002  4.381309296458953E-002  4.124574087807865E-002  2.008672370084633E-002  8.635819116336832E-003  1.331001582496778E-002  0.942787249740167       0.939232852440896     
  0.940983521721513       0.986471094998534       0.992889048462145       0.992976216891760       0.944031361460187      -2.285253549476373E-003  0.957675760204160       0.950393278146041       0.946656870262390       0.987266937795473       0.990960194826863       0.936889713478801        1.00948976614691       0.989739058786131       0.933090733365011       0.955238475521379     
  0.953229548576498       0.951084544547236       0.970277754948837       0.944824178412546       0.956535236157748       9.984891118025249E-003  6.406633587807901E-003   1.01519573575504        1.01375769431274        1.01518773845610        1.01742919380684       7.274076901258399E-004 -1.495384690679628E-003  1.215826155894018E-002  4.989901875567426E-002  4.708011463234111E-002
  4.448818975448889E-002  4.297803081055465E-002  0.948878035773565       0.944762073793817       0.929085430006616       2.279816319708505E-002  1.941468009057214E-002  2.857116797169337E-002  0.988212275779338       0.976934628196965       0.980817153936826       0.984556828549830       0.973643745174528       0.973636947931397       5.074300174704983E-002  4.833084081586840E-002
  4.588666882340958E-002  4.353104296851988E-002  4.047831249028889E-002  0.952641902670802       0.955032790834528       1.586136663758407E-002  1.698266374397726E-002  0.960524843435343       0.991889909021167       0.963045360700711       0.959058686892624       0.965591173344274       0.938507762132168       0.996762920255828       0.999763914233649       0.993129402029842     
  0.941408562845075       0.937753977219970        1.00076825137513       0.947249427637335       1.366334691623909E-002   1.01641455439390       3.022626829335901E-002  3.032780649565386E-003  0.935517818393373       0.951195833710216       0.999218568701425        1.00192230530455        1.00505606197726       0.966037837588092       0.943368995438618       0.948696563332880     
  0.944178571238558       8.102846760361063E-003  5.348566936400955E-002  5.051703473429365E-002  4.726299134766442E-002 -8.150300477310910E-003 -1.128012174553577E-002 -1.469697726519357E-002 -4.370882832468343E-003 -6.730105237824650E-003 -2.347725139663802E-003  0.986351428406747       0.978088658820809       0.998103127228519       0.943493925219084       0.935100207715133     
  0.931082286905140       2.659598705340191E-002  3.059540201609243E-002  2.399959539943323E-002  0.995804573353135       0.997161187307418       0.989722254800555        1.01669630638006        1.01881695704060       0.989030720479489       0.994556667634666       0.995681790839330       0.992811687466821       0.983136509240037       0.961680081454141       1.012524473987968E-002
  6.317003744888559E-003  0.933747764354821       0.949286579937205       0.946952880262956       3.155802384752893E-002  3.047718537903487E-002  2.852253864191247E-002  0.940525152237962       0.945880777118139       0.942465607950512       5.427609512415275E-002  5.178723419405935E-002  4.921163901113479E-002  0.981894943120066       0.985452999942180       0.985954588200805     