 VARIABLES = "X" "Y"
 ZONE T="  0.000000000000000E+000 " N=        9944  E=       19548
 ZONETYPE=FETRIANGLE DATAPACKING=BLOCK
  -19.9782054645671       -16.7460447536127       -13.5432470514743       -10.4462771124608       -7.39483127129757       -4.39431260318683       -1.43672854734527        1.47853524247441        4.40194279230921        7.38347804238703        10.4122197804982        13.5308676756442        16.7310607632789        20.0189460056259        20.0156650185539        20.0123451374732     
   20.0090067226427        20.0056742799471        20.0022854763303        19.9988742323503        19.9954939648514        19.9920871178897        19.9886881104951        19.9853470049941        19.9820070605281        19.9783478910574        16.7317203104092        13.4557822172063        10.1645634122701        6.87452312340184        3.53259687976399       0.170578499054329     
  -3.16443525887912       -6.48474521199279       -9.79114624567630       -13.0836966857758       -16.3754018560739       -20.0188035791356       -20.0155069002833       -20.0121812769038       -20.0088400757232       -20.0054989473046       -20.0021446450312       -19.9987763328347       -19.9953939522161       -19.9920253568386       -19.9886729196427       -19.9853365630757     
  -19.9819979716434       0.999504657706289       0.997986144143199       0.996472088544917       0.994968320990820       0.993419979837368       0.991810714068983       0.990135675454220       0.988399350473375       0.986601625566809       0.984740172925107       0.982800981109627       0.980792600805149       0.978698832183523       0.976532366565844       0.974289345974620     
  0.971962358215434       0.969548851763454       0.967048005213833       0.964457498834301       0.961777693334857       0.959003604841080       0.956127418449809       0.953138010406937       0.950025957117007       0.946819992574488       0.943498430168291       0.940028680313493       0.936453139388504       0.932759676898860       0.928926809087913       0.924919594704775     
  0.920768681507432       0.916468805416071       0.912006065857766       0.907371475775237       0.902558576087802       0.897560833071836       0.892365657184280       0.886960279772962       0.881337031544832       0.875488141418696       0.869414747628756       0.863109617760531       0.856564801434281       0.849770282180212       0.842717195528165       0.835397053372692     
  0.827803474067626       0.819928025498805       0.811762435415447       0.803298312662067       0.794526803955760       0.785440244821680       0.776029715212015       0.766171067572549       0.755953186555101       0.745364630340957       0.734394701363613       0.723036353044163       0.711277172796511       0.699104464101060       0.686510904049059       0.673484657984880     
  0.660011727581198       0.646084627761321       0.631689761735360       0.616810327831762       0.601435084321898       0.585543264993373       0.569122247567713       0.552156408846626       0.535234833526512       0.518275335171460       0.501245621094962       0.484145749332062       0.466975319592315       0.449084468765376       0.431789452459807       0.415088843316180     
  0.398981072827623       0.383450303593886       0.368411900675477       0.353847596644265       0.339753411157416       0.326138269685950       0.312987229732431       0.300301412097921       0.288081820146473       0.276310204857059       0.264961543030291       0.253988350644274       0.243378028248991       0.233118197352309       0.223201614000057       0.213620192218683     
  0.204362253968008       0.195416558751680       0.186778510611529       0.178431844127269       0.170366866285027       0.162566553892443       0.155024071332069       0.147733025909476       0.140687316742111       0.133880727480255       0.127306358358473       0.120958636828990       0.114832351601763       0.108922192178871       0.103223621133669       9.773226334057117E-002
  9.244393267611357E-002  8.735514625249573E-002  8.246217556887481E-002  7.776126378181507E-002  7.333056185867730E-002  6.906302459500797E-002  6.496032201898619E-002  6.102070884249156E-002  5.724431478766039E-002  5.360909705167368E-002  5.012670564973001E-002  4.679504452259865E-002  4.359637814048842E-002  4.050150210695874E-002  3.750729730664851E-002  3.459091949791025E-002
  3.175270623840950E-002  2.899771911486076E-002  2.632878474287061E-002  2.374985547246640E-002  2.126704227697164E-002  1.888797241136158E-002  1.673116879139360E-002  1.465490966953853E-002  1.267886668520180E-002  1.082191708062970E-002  9.108802649005902E-003  7.474884333630024E-003  5.883898145186754E-003  4.438370984915967E-003  3.129446152302415E-003  1.994884347578296E-003
  1.094368673384604E-003  4.952143204986764E-004  2.116062159692518E-004  1.651140979037347E-004  4.392019822990484E-004  1.071366096279965E-003  2.013020392367108E-003  3.174649501908723E-003  4.485182827713296E-003  5.890256861300340E-003  7.587698184368885E-003  9.372711075564465E-003  1.126088049418325E-002  1.316606812597887E-002  1.511806045028159E-002  1.716490706696259E-002
  1.935733520859854E-002  2.166168406439479E-002  2.408785583222013E-002  2.657621809353952E-002  2.913432769847954E-002  3.180625617667161E-002  3.463162630420161E-002  3.760791362257816E-002  4.072464620761548E-002  4.396981668303566E-002  4.733256874598071E-002  5.080102892795733E-002  5.437179245832402E-002  5.804471911194081E-002  6.181245802522468E-002  6.603587475649413E-002
  7.040485884971905E-002  7.491683347936275E-002  7.956866629930474E-002  8.429156552146393E-002  8.915481854001506E-002  9.418474224526956E-002  9.937924975815976E-002  0.104740442906575       0.110258583505085       0.115953141843422       0.121865170901122       0.128044461449554       0.134504038131865       0.141247087339877       0.148270114734955       0.155574343246912     
  0.163162870317299       0.171036711763481       0.179199820032538       0.187655672191612       0.196408712570198       0.205644287380159       0.215220546497804       0.225143206000361       0.235421305295240       0.246063085469023       0.257075647308103       0.268469311169054       0.280254792906336       0.292439558545109       0.305034371395596       0.318051493199116     
  0.331498349336763       0.345384783557785       0.359724133827869       0.374516603534583       0.389772751998465       0.405498567234495       0.421679450847680       0.438325624816164       0.455379602827861       0.472833031268548       0.490360024876765       0.507754079089318       0.525013579836859       0.542141030926023       0.559140264142630       0.575693948933810     
  0.591778786626965       0.607375370714421       0.622482864376731       0.637103562080264       0.651201847790831       0.664789274007140       0.677881240126651       0.690495737767164       0.702653115975267       0.714404671594198       0.725792157640502       0.736823637208417       0.747507405807859       0.757845661871994       0.767846794932895       0.777519594879940     
  0.786872828901066       0.795828754434963       0.804456255524399       0.812760127088661       0.820746228398880       0.828419175365593       0.835783272202429       0.842845721859884       0.849668921168056       0.856282677160591       0.862690060444616       0.868894835315160       0.874900848862826       0.880712070418497       0.886331770825906       0.891763042389282     
  0.897009315643586       0.902074923479072       0.906967572506379       0.911691791695066       0.916252068282762       0.920459575860106       0.924551545589543       0.928526102043071       0.932386126552439       0.936116713115938       0.939714866607356       0.943186937755479       0.946525192969423       0.949733243156194       0.952826405477097       0.955780642459311     
  0.958602599076234       0.961348580372911       0.964015544618299       0.966601661264450       0.969105683752410       0.971527037864702       0.973866900000635       0.976126314558296       0.978308592863261       0.980417634221204       0.982405329570832       0.984338755526900       0.986203262585637       0.988003591567917       0.989743702135712       0.991424887636226     
  0.993042705202587       0.994598422010265       0.996094546635998       0.997586896638661      -1.062440480717334E-003 -8.692030321389877E-004 -9.994902649887005E-004  0.995747024309971       0.997189378778231       0.995740780139550       0.996981251726705      -2.478103034363982E-003 -4.101874104195601E-004  0.995419585106154       0.996199080252537      -2.049276395488641E-003
  0.994356379588502      -2.374650936522284E-003  0.993875697247286       0.992220141420628      -6.313287628588054E-004  0.992636526506557       0.993619432538060      -2.391192335382835E-003 -3.952101598134024E-003  0.994727735208436       0.994889900311473       0.998619144068899      -1.445208565940509E-003  3.372139297502465E-004  0.990887186646302       0.989117951945168     
  0.987344836969930       0.991732021879893       0.997929109527238       0.993213534228013       0.991006182372312       1.630889955855567E-004 -2.033048350640020E-003 -4.038707676276969E-003  0.992621083693748       0.997180037971594        1.00026791140072       0.997901093811362        1.00094846123441      -3.355609016254122E-003  1.359432018881604E-003  0.996310753547127     
  0.996706228349937       0.999264815401321       0.989277553971052       0.989903115776859       0.988052907991971       0.986140261052097       0.990735525154439       0.992514790375402       1.271150963189125E-003 -7.132452623082140E-004  3.951081623905930E-003   1.00205624610275       0.990265851914369      -5.389385610882252E-003  2.623269808007964E-003  0.990740017985096     
  0.987395497741793       0.988786158287340       2.529693598723049E-003 -4.090623512292466E-003  0.991482211378632       0.999679888815091       0.999134521487791       4.095303188813184E-003  0.988910143387705      -2.598084247803924E-003 -3.794276082226260E-003   1.00296651778225        1.00103198959918       0.994631380164295       0.998767099784796        1.00084211284967     
  0.993526021671891       7.442807475959257E-003 -2.469813505572598E-003  0.999403278525298       0.998550185227045       5.737320547956611E-003  0.985432058022942       0.983448153066911       0.991670598746761       0.997792521513469       0.986686293664278      -5.853095120334247E-003  0.988092033296963       9.115146422579498E-003 -5.461297885976153E-004  6.385827350176010E-004
 -5.381063540480164E-003  0.984046596107663        1.00324286031386       0.986924679955151       0.984720018482135       0.997592518774581       0.995559504280631      -1.522787324996514E-003   1.00383452102172        1.00571441053098        1.00157061093427       0.984542180349409       0.982295780131100        1.00067016722803       0.993978984224236       0.985903089679184     
 -4.793817230911946E-003  5.726429391685480E-003  1.828707577828747E-003  7.493337326009256E-003 -7.142325095705760E-003 -1.663936291898390E-003 -1.395637587180073E-004  4.652098697489291E-004  2.092821821155537E-003  0.994513521499055        1.00241140084270       0.995399756795501       0.988052388812147       0.992336812781578       0.981669006228800       0.979511568159573     
  0.982498855886854       3.803431049589057E-003 -5.593231072295889E-003 -7.462241887006506E-003  0.977361942001354       0.989499906127900       5.560071527815144E-003  0.985773416822468       0.990704266171015       0.993476220566898        1.00017724785350       0.999404857405745       3.403143756656099E-003   1.00517261328471        1.00414356436003       0.996359515560409     
  0.998313173116329       6.269037333504280E-003  0.999806763161140        1.00211032581904       1.089240715960105E-002   1.00271966977347        1.00666724850381        1.00440995910192        1.00701120812514       0.989863142828533       0.993002749759886       0.988823943623491       1.557064573537908E-003  7.342837450657703E-003  0.989808120914023       0.985697916425562     
  0.983041836953460       8.901549493379624E-003 -6.058297047028106E-003 -3.847110812759440E-003 -2.573664831666595E-003 -3.849223565682148E-003  0.991144914042018       0.992261813082979       0.980378803989613       0.978183634602669       0.975803120778105       1.119449520223978E-002  0.991830682379789       0.995803631909586       0.994779710898472       0.996879909599246     
  5.173869676100055E-003  1.315692351939951E-002  0.987432452321098       0.987127130745087        1.00303040289609       0.989087553603420       9.240307430189063E-003  0.987126759707130      -4.093190303730731E-003 -7.996367346807582E-003  0.981173241907920       0.979903366872073       1.288030793359684E-002  0.981691149333660       0.977412668332533      -6.055398337950828E-003
  0.985187550481478      -7.522033919178334E-003  1.092705212333676E-002  0.994365243570283      -2.925067918532159E-003  3.619499570335712E-003  0.975130518755880       1.117733064816746E-002 -4.523073102887364E-004  1.062476750061240E-003  1.516425916467679E-002 -9.787389106583927E-004  7.107529597756255E-003  0.978526971623805      -6.337282386734694E-003 -9.041715476042073E-003
  9.147134183213314E-003   1.00537301983119        1.00826834073397       0.979272050249578       0.976818733597052       0.973703824145887       0.984359552441550       0.982215380234024       0.993508395305759      -1.484331133852205E-003  1.310591602019329E-002 -9.789059524104858E-003  0.976497476465603       0.974131366903374       1.499045242923364E-002  4.781228823616855E-003
  8.669021696670984E-003  1.121983684764115E-002  0.972774815241916       0.970388570980623      -8.210055551972179E-003 -1.035142981058527E-002  2.327463464414056E-004  1.311135328601024E-002  0.983528161563007       0.980700878387860       0.982595606951807       0.979967281581656       0.980718181981269       0.980271673881097        1.00869233471536        1.00541887483650     
 -5.834368940697508E-003  9.716194493029422E-004   1.00194471247369        1.00118322986287       0.984601027199774        1.00405351401889        1.00370183306703       0.971635367772452       1.719245017729774E-002  0.981641530700874       0.983034156639824       1.106539311383039E-002  0.998468032903027       0.989364637431773       0.969058764743605      -3.694051188878834E-003
 -5.166393345598048E-003  0.985388965036842       0.995818387907307       1.534821556221937E-002  0.979290923822798       2.816744693921883E-003  1.729942027221315E-002  1.512721367478473E-002  0.973334891365270        1.00766790705691       0.978436034031539        1.00115459653487        1.00008548678299       0.978136657636740       0.997371482612902       1.341728625821630E-002
 -4.257059302932790E-003 -8.238817835220206E-003 -2.585538030644453E-003 -9.996901468955523E-003 -9.670685378608563E-003  3.388103227036075E-003  0.975462059570204       0.975690778661980       0.973111286561991       1.147403591904854E-002   1.00931878186001       0.970639129198735       0.968171546945289       6.927092239731291E-003  0.971531514026097       0.965683181607122     
  0.963444326890255       8.758118955149647E-003 -7.905647374930155E-003 -1.081863490437560E-002 -1.930013549190097E-003  1.958146473280926E-002  1.738505719127219E-002  0.996250039380373        1.00288355504145      -1.182599613260817E-002  0.982758504171260       0.979581804180452      -6.599179593355640E-004 -7.121114178786627E-003  1.500630791391568E-002   1.00179760987083     
 -1.051126471200610E-002 -1.284686848686965E-002  0.977478814782816       0.976997790509938       9.201399906393348E-003  9.812912651850627E-003  0.987404868968957        1.01079116866623       0.990306744776196       1.567985276447847E-002  2.201059071619289E-003  0.969322646089365       0.966829087940832       0.964193108450718       0.961132508714931       1.765725610858765E-002
  2.020702029948007E-004  0.970404586857395       1.379266635160172E-002  1.951236994244311E-002 -1.219556522350012E-002  0.993207511783768       0.994609596845179       0.997351246541221       6.866460691607223E-003 -6.513698606077453E-003   1.00600213406183        1.00596703045875       0.967562772292387      -5.587160545674251E-003 -4.895462097221115E-003  4.409743775082244E-003
  0.970708015941629       1.263645195502166E-002  0.999011102917557        1.00070264023056       2.196773151009355E-002  1.980148844766267E-002  1.746458826795579E-002 -3.777770931344428E-003  2.194150788576090E-002  0.974846819745217       0.972025503846967      -1.461001937972467E-002  0.987778655790681      -1.044739540652055E-002   1.01042563125601       1.574496117504613E-002
  9.173715931209114E-003  2.009093783196986E-002   1.00460430720397       0.968130903420967       0.965550795430541       0.995984519895756       0.962584367833053       2.436755249359758E-002  6.064661165747527E-003  2.229203810273111E-002   1.00859752747596       6.746542450392797E-003  4.054401666397820E-003  3.735991542857191E-003  1.806681378306543E-002  3.206475740252499E-003
 -8.706012233471982E-003  0.990279702920649       0.985288701578531       0.983270997028665       0.985687209625855       0.987725012737529       0.994946761661091       1.489486130679334E-002 -1.643189895448125E-003  0.966162014650266       2.070496618266546E-002  0.969406814826287       0.990810222578871       0.989826024951565       0.987473311733473       0.985265479636160     
  0.988157352178268       0.989095003118512      -1.224516935915514E-002 -3.117997316509816E-003   1.00017523885120       0.984404021602338       0.968258127031963       0.997885862157173       0.996667451388666       2.672438072361183E-002   1.00806841717432        1.00629795230138        1.00983396492563        1.01152961747417      -1.291133170567497E-002 -1.551101398263148E-002
 -8.325711479445103E-003  2.009609558115748E-002  1.757915438883854E-002  1.482321206549499E-002 -9.932200216475215E-003  0.990600987542893        1.00894634021992       6.090672749236239E-003  0.980407029377406      -7.039885380258847E-003  0.992280565057831       0.992986088908391       0.994140292455046       1.561655244853852E-003  0.972258907758957       1.277518874348954E-002
  1.235299189352562E-002  0.980867663489762       0.970642655830801       0.959273076537494       0.963028280888241       0.960146159980327        1.00409456163895       0.964672953482956       0.967748540697927       0.973622899751981       0.971947408283078       0.975603691530096       0.976517871961678       0.974906704092634       0.973277516896160       0.957165142880383     
  0.953887920005087      -5.151705595219331E-003 -1.268597560297720E-002   1.01203350422398        1.01323926697272       0.982373084250130       0.979808943152537       6.474459900736631E-003  6.048365444847475E-004  9.340614593746474E-004  6.167228341535022E-004 -6.135864249115202E-003   1.01132368154890        1.00702094716293      -1.027988590036985E-002  2.929975157927559E-002
  2.644060597204875E-002 -1.497468842952620E-002  9.462784168359512E-003 -1.536967026971926E-002 -1.829848173070545E-002  0.991974844183326       0.990074215192928      -1.249076532706839E-002 -1.523262479926838E-002  2.681722817899567E-002   1.01093154012930       1.211180136394912E-002  0.986462062122650       0.987050878798657        1.00299763499800        1.00899641777648     
   1.01186497206771       0.987674237549125       0.961844105465277       0.958899265108947       0.955671161533499       0.952142107784261      -2.798209273032868E-003  0.977826976259051       0.984898183022982       0.984313503523965       0.982603811148661        1.00914545308986       0.977485401306073      -1.217198502194221E-002  0.984072436840340       0.967070245168025     
  0.968986046735345       0.970335744730629       0.971507285938587        1.01103511173500        1.01161149455344      -8.662241053848767E-003 -1.790801390344612E-002  0.963438684336783       0.973837833761662       0.970915035332672       6.499077086037119E-003   1.00714146274967      -4.213387708875490E-003 -7.871537903751931E-003   1.01183760961325        1.00415184673220     
   1.00202883400970        1.01282200458673       2.294631852897558E-002  2.949546410971821E-002  2.677758119093647E-002 -9.245870416714994E-003  2.259189834783975E-002  2.438766252131673E-002  2.350748482985226E-002  0.978095903854475       0.976697963356031       3.502869576572152E-003  2.900983696749151E-003  0.999042124356327       9.632390802338546E-003   1.01391078425164     
  0.960905238930169       0.987616618625765       0.993361111784092       0.995212695896979       0.957697394770232      -1.195771695877897E-002 -1.508881463995690E-002  0.964580403010914       0.980207018623590      -1.513074227379258E-002  0.981249354971890       0.984465407463440       0.990837675653646        1.00644456767389       0.972930222555677       0.969101821843912     
  0.966036008506413       0.963749685896494       0.967721955172419        1.01327913828125      -7.369935149202439E-003 -1.090877940410261E-002  1.189917587045210E-002  2.455114425778627E-002  2.049301429525177E-002  1.770702655811229E-002  3.206768990466187E-002  2.961277707210183E-002  2.816030496916221E-002   1.00498706459630       1.473929560442298E-002 -1.640925330064128E-003
 -1.625612640455338E-003   1.01411600139812        1.01642556596300      -1.525556588878201E-002  0.954587928844126       0.951470243200757       3.242314985497966E-002  3.014152270405017E-002  2.788777266635592E-002 -1.244764614465202E-002   1.01379408886698        1.01748751097678       0.975365868197009       0.969920915524082      -5.295979315471085E-003  9.201218141189998E-003
  6.829311118852730E-003 -1.830996039456330E-002   1.01403509458974        1.01513221307905       2.483189175815465E-002  2.142559321552662E-002  0.965889070258159       0.967409455942447       0.968905585130992       0.969092404656839       0.997756429347907        1.00549691317926        1.00822840593398        1.00403100472019      -1.048262975564919E-002 -1.299128589191831E-002
 -1.515892964269551E-002  0.948284379836824      -1.066915520920344E-002 -1.407884106981359E-002  0.975269447396740       0.956077045293346        1.00900559251383        1.01184483489454       0.981116502803442      -1.399603717350522E-002  0.991222657457856      -1.766986762499563E-002 -2.095723849882401E-002  3.534134594557620E-002  3.316022460057960E-002  3.102232586762552E-002
  2.904838906168371E-002  0.972324237493991       0.975126183532979        1.00095261214050       0.999707122393148       2.383571251292643E-002   1.00715058224291       3.846478852494262E-004  6.296729208478975E-003  3.448928286029340E-003  0.966634968144528       0.969017869570955       0.978283180898763       2.460068590996203E-002  1.845905308478421E-002  1.580397251119161E-002
  0.999733215605924        1.00227200605741       0.998817162152075        1.00591698270042        1.01459702378926        1.01480013267235       1.286974147835372E-002   1.00352838350459       3.498120435487813E-002  3.208078005682145E-002  0.953023175640328       0.949763944152386        1.00535989422999       0.946192755302604       3.827562509194127E-002  3.603729773832052E-002
  3.391794620755593E-002   1.00897805591617       0.960828020343546       0.957339675720006       1.895344608143167E-002  0.962459803890797       0.984939942705573       0.976967204835411      -1.669656550865922E-002  0.965536219030156       2.084667677019621E-002  1.780413448321538E-002  0.964169076173381       0.966163144007244       2.389823297100463E-004 -6.934280973725294E-003
 -1.395887484125093E-002  9.874152865360707E-003  0.963830210399664       0.961627197699236       0.967959070614701      -1.753953555181549E-002  8.903136284646961E-003  0.954541533219957       1.461866872984475E-002  2.224354718081147E-002  2.566121424183120E-002 -1.239057030938781E-002 -1.532997769804619E-002 -1.377785964719748E-002 -1.709661451793781E-002 -1.754879521832346E-002
  0.954557917506314       0.958735257059084      -2.159149393797464E-002  4.131288645668342E-002  3.890126001438973E-002  3.655261888795753E-002  3.476310192218896E-002  6.830860463238680E-003   1.01236400763722        1.01693940532843        1.01889085843980        1.00971810666256        1.01662517579038       0.971710870630622       0.975110283449298       0.960534531045298     
 -2.102677836723772E-003  3.813625088506319E-002  3.535376999250321E-002  3.231045724565959E-002  0.951686970027145       0.947913670378054       2.424457094937953E-002  0.996684380376618       4.293845836506297E-003  3.969028843964014E-003 -1.794573973435692E-002 -1.574862476414493E-002 -1.761570606071068E-002  0.962519625292424       0.958620807271421       0.978060382470900     
  6.189593361780039E-003  4.062666688745575E-003  1.316624804217725E-002  1.159897602680555E-002  0.943361083088563       0.948576600343648      -1.831703108761816E-002 -1.823561818033843E-002 -1.755646742243519E-002 -2.134285852792040E-002  0.964836741849817       4.450788747832585E-002  4.204775103095076E-002  3.910765603486768E-002  1.958877350538048E-002  0.954248827120386     
  0.957665222373395       0.959834894558160       0.950715329136476       0.956404214346556       0.952850400267055       0.949242434117127       8.226214359180634E-003 -1.227705136324614E-002  0.997715580900093       0.974310133924910       0.973098508077224      -2.027995387171365E-002 -2.024891350864002E-002  0.970716293466495       1.616749140312460E-002  1.380828181059428E-003
  0.981403460669453       0.984448533671930       1.665187955081613E-002  2.109972133405193E-002  1.788863275335090E-002  1.450849733103648E-002  4.139549379093949E-002  3.873640726513481E-002  0.978734820936339       0.973533385101375       1.001947935199697E-002  6.710707434032122E-003  0.945132939068573       0.941640083576345       9.068788545869642E-004  1.120246527200574E-002
   1.01418323872611       0.960734601863995       0.956607417118157      -1.923183074678071E-002 -2.146740223616773E-002  0.938048403433620       0.934405753837600       2.318027023441347E-002  0.947184189438967       3.586239808678907E-002  3.266311519414241E-002  2.696951513890655E-002  4.782658316916163E-002  4.542918495785380E-002  4.297472644935914E-002  4.090283128676117E-002
 -2.231999561960653E-004  0.987654631436959       0.990883793125413       0.955082355658039       3.702909825726282E-003 -1.999911518819095E-003   1.01417332477505       2.457575901242066E-002  4.469922450930255E-002  4.208216484650354E-002  3.955154969898719E-002  2.033590303236677E-002  7.397357025208020E-003  1.349498655423639E-002  0.943677380525581       0.940093888861719     
  0.942389134234328       0.987620226970404       0.994077207996494       0.994148441823354       0.945436913615790      -2.258737380408191E-003  0.958683775345483       0.951343151931136       0.947576837416732       0.988619510188989       0.992308345370860       0.938296539829848        1.01073116271060       0.990893484397259       0.934498463697920       0.956627316181022     
  0.954617399255845       0.952471474696123       0.971648851011385       0.945730238807396       0.957527564426762       1.014214824036428E-002  6.537139298186185E-003   1.01647578490257        1.01505663724632        1.01649028680129        1.01872321603694       7.900536486905272E-004 -1.441889076795807E-003  1.085814553802894E-002  4.808096870722380E-002  4.530705103380577E-002
  4.274893586777562E-002  4.126107361153361E-002  0.950273567775820       0.946158952572655       0.930493954595632       2.137382697255592E-002  1.802367373455536E-002  2.707489840228289E-002  0.989563250514126       0.978298961491496       0.982176436086631       0.985911806353266       0.975012214191011       0.975003193071014       5.125049313760532E-002  4.881493009152208E-002
  4.634941402915302E-002  4.397465034438888E-002  4.089347324797568E-002  0.953605775339469       0.956008845771948       1.450235763572846E-002  1.720423794160947E-002  0.961554114308073       0.993236782770282       0.964078706643175       0.960062865572008       0.966631934439663       0.939912098098934       0.998104028095969        1.00110206292751       0.994288493753040     
  0.942289366778267       0.938604098692962        1.00197102993933       0.948642706227888       1.385778061880301E-002   1.01765375232527       2.870270337714738E-002  3.124071513048496E-003  0.936347198073970       0.952587384016485        1.00040119045184        1.00314257304032        1.00627073905648       0.967412548359374       0.944763428264424       0.949632717642870     
  0.945080571313117       6.838070693302696E-003  5.161799156808652E-002  4.869638889964770E-002  4.548836431962850E-002 -9.062420840996729E-003 -1.215916096569543E-002 -1.556639184483673E-002 -5.339382006536519E-003 -7.699534007550646E-003 -3.381995578758503E-003  0.987486023545109       0.979449796149349       0.999443325954029       0.944390219285723       0.936505133371310     
  0.932487924497073       2.511627493802839E-002  2.905727820071912E-002  2.428477519728203E-002  0.996977905498426       0.998324134553059       0.990862396214150        1.01800635832969        1.02008653677676       0.990380330088126       0.995900340344099       0.997024665572735       0.994157429499096       0.984265717964160       0.963058011902990       1.029337878274631E-002
  6.459437548309786E-003  0.934564176156908       0.950676836550908       0.948342211334278       3.191776157609395E-002  3.082508139550457E-002  2.884880543140509E-002  0.941923315289755       0.947272632596557       0.943857576013787       5.480295095113392E-002  5.229066413696471E-002  4.969185918690141E-002  0.983251841974228       0.986806384028392       0.987306586981397     