 VARIABLES = "X" "Y" "RO" "U" "V" "P" "M"
 ZONE T="  0.000000000000000E+000 " N=        9944  E=       19548
 ZONETYPE=FETRIANGLE DATAPACKING=BLOCK
 VARLOCATION=([3-7]=CELLCENTERED)
  -19.9782054645671       -16.7460447536127       -13.5432470514743       -10.4462771124608       -7.39483127129757       -4.39431260318683       -1.43672854734527        1.47853524247441        4.40194279230921        7.38347804238703        10.4122197804982        13.5308676756442        16.7310607632789        20.0189460056259        20.0156650185539        20.0123451374732     
   20.0090067226427        20.0056742799471        20.0022854763303        19.9988742323503        19.9954939648514        19.9920871178897        19.9886881104951        19.9853470049941        19.9820070605281        19.9783478910574        16.7317203104092        13.4557822172063        10.1645634122701        6.87452312340184        3.53259687976399       0.170578499054329     
  -3.16443525887912       -6.48474521199279       -9.79114624567630       -13.0836966857758       -16.3754018560739       -20.0188035791356       -20.0155069002833       -20.0121812769038       -20.0088400757232       -20.0054989473046       -20.0021446450312       -19.9987763328347       -19.9953939522161       -19.9920253568386       -19.9886729196427       -19.9853365630757     
  -19.9819979716434       0.999277689488169       0.997758023997051       0.996242863114011       0.994738039826298       0.993188654599239       0.991578348882990       0.989902275589112       0.988164928125414       0.986366196655278       0.984503755745022       0.982563590651437       0.980554260427231       0.978459561641549       0.976292195076689       0.974048304167169     
  0.971720476870108       0.969306163675379       0.966804545442740       0.964213303839627       0.961532801325072       0.958758054007915       0.955881246321791       0.952891253390930       0.949778651167071       0.946572179129525       0.943250147156182       0.939779962120090       0.936204026413978       0.932510208248906       0.928677022755665       0.924669528154980     
  0.920518377222905       0.916218308566458       0.911755425094267       0.907120744880354       0.902307815438255       0.897310111069120       0.892115051929160       0.886709880971659       0.881086942121400       0.875238479057995       0.869165645258367       0.862861225005075       0.856317285492908       0.849523828660478       0.842472008510755       0.835153355076067     
  0.827561503580122       0.819688037856423       0.811524699790274       0.803063110122014       0.794294424868383       0.785210985257568       0.775803873697351       0.765948985960609       0.755735166265132       0.745150962791059       0.734185662191220       0.722832194632950       0.711078120329494       0.698910709226756       0.686322595841801       0.673301898120390     
  0.659834564437491       0.645913047094542       0.631523682991803       0.616649599471738       0.601279476694279       0.585392469408850       0.568975870764471       0.552013972948764       0.535095672340505       0.518138785677081       0.501111016194381       0.484012420968822       0.466842608489130       0.448951720665467       0.431656044955258       0.414954257981600     
  0.398844890305845       0.383312195057507       0.368271608377204       0.353704931923052       0.339608249563551       0.325990546884390       0.312836930559885       0.300148567094608       0.287926499436253       0.276152508371708       0.264801593846146       0.253826286287923       0.243214004163788       0.232952383788727       0.223034194083069       0.213451359181928     
  0.204192208397468       0.195245506859668       0.186606663283757       0.178259414423023       0.170194069145639       0.162393605229970       0.154851187983059       0.147560424883863       0.140515214549519       0.133709339575924       0.127135898810068       0.120789317822564       0.114664383020463       0.108755781317349       0.103058972217672       9.756957716127118E-002
  9.228340622024823E-002  8.719697207078474E-002  8.230654149412613E-002  7.760835259915358E-002  7.318049567074542E-002  6.891597981550908E-002  6.481646829757987E-002  6.088021060173865E-002  5.710732880521534E-002  5.347579459388848E-002  4.999724040410888E-002  4.666956434085752E-002  4.347504559309926E-002  4.038451759757269E-002  3.739487096392882E-002  3.448330736107971E-002
  3.165018147736719E-002  2.890056561005378E-002  2.623730264255723E-002  2.366436106619237E-002  2.118786460735279E-002  1.881544963933823E-002  1.666528807634066E-002  1.459608433574778E-002  1.262749429580662E-002  1.077836744552007E-002  9.073366403408658E-003  7.448235658464530E-003  5.867148384299145E-003  4.432271804297422E-003  3.135115892474304E-003  2.013606212657628E-003
  1.127369697701266E-003  5.430256343405654E-004  2.731720514181604E-004  2.407701706103882E-004  5.282298286637265E-004  1.166635979131799E-003  2.108789322498531E-003  3.266517121282101E-003  4.570034865184156E-003  5.965967238296656E-003  7.651077429134469E-003  9.422204328888059E-003  1.129505597735172E-002  1.318437980416525E-002  1.511985878840913E-002  1.714922791795557E-002
  1.932284944518851E-002  2.160741558771042E-002  2.401280702928437E-002  2.647995999059165E-002  2.901641645009882E-002  3.166592480186532E-002  3.446783370572393E-002  3.741970426968192E-002  4.051121473616757E-002  4.373051609111545E-002  4.706689546702360E-002  5.050862424601618E-002  5.405237142823940E-002  5.769804344430393E-002  6.143838675018887E-002  6.563176820241996E-002
  6.997042438007392E-002  7.445186159748833E-002  7.907303141662994E-002  8.376563783004122E-002  8.859856479837493E-002  9.359803043520749E-002  9.876203136322875E-002  0.104092726884387       0.109580500747313       0.115244784094208       0.121126495412374       0.127275278688221       0.133704220241976       0.140416621498107       0.147409133229913       0.154683100504213     
  0.162241735410987       0.170086177136849       0.178220490883897       0.186648269935600       0.195374073602942       0.204582859876691       0.214133392519345       0.224031531068104       0.234286456135814       0.244906559763726       0.255899103639105       0.267274571693104       0.279043853597819       0.291214604037132       0.303797781041195       0.316805851880666     
  0.330246461879998       0.344129681893525       0.358469085696925       0.373265117254820       0.388528576615016       0.404265688418322       0.420462058843496       0.437128111063505       0.454206435428612       0.471688751516793       0.489248566215841       0.506678714022792       0.523977220886738       0.541146227668989       0.558189197789960       0.574787541335875     
  0.590917413975147       0.606558907443902       0.621710778727965       0.636374973291239       0.650515460808260       0.664143568901398       0.677274531660797       0.689926226370988       0.702118932553172       0.713903997200320       0.725323215950525       0.736384618824147       0.747096489150738       0.757461015551374       0.767486610001228       0.777182098505401     
  0.786556294602002       0.795531330431532       0.804176297917163       0.812496059289080       0.820496547869157       0.828182454663074       0.835558161005110       0.842630952735099       0.849463380754857       0.856085342038633       0.862499957171511       0.868711041534987       0.874722493334540       0.880538332895019       0.886161881243924       0.891596280617491     
  0.896845011441711       0.901912456341403       0.906806371429091       0.911531332425259       0.916091872099118       0.920299224567880       0.924390675438198       0.928364379958024       0.932223249417767       0.935952414398600       0.939548914916436       0.943019131763193       0.946355367740247       0.949561263169655       0.952652153414493       0.955604046588696     
  0.958423610251454       0.961167122961288       0.963831561898184       0.966415114000294       0.968916549033233       0.971335307637057       0.973672578208235       0.975929416153714       0.978109140029610       0.980215654368125       0.982200918328540       0.984131935370156       0.985994080526821       0.987792094620683       0.989529937408424       0.991208905095431     
  0.992824564827725       0.994378185872727       0.995872276731699       0.997362581054386      -9.991234851673180E-004 -8.175255662905534E-004 -9.259598039127709E-004  0.995517054846875       0.996960161821343       0.995510434584461       0.996759003060690      -2.416493719926961E-003 -3.711721135119268E-004  0.995199093985993       0.995978556714624      -2.006315775364709E-003
  0.994125538192467      -2.321352299934945E-003  0.993656910518409       0.992003488593400      -5.490424012074704E-004  0.992404578191288       0.993387813633700      -2.322722542681569E-003 -3.899182444597938E-003  0.994508493233119       0.994671455341931       0.998395355519162      -1.413939616369402E-003  3.630562644779277E-004  0.990654218355365       0.988884003367480     
  0.987109923412115       0.991499413087880       0.997707003662128       0.992996025575267       0.990791448696436       2.488457988417833E-004 -1.960199093041386E-003 -3.980673045807190E-003  0.992388764198836       0.996959637938385        1.00004327070859       0.997671799809797        1.00072227747807      -3.320582571914464E-003  1.372343770215649E-003  0.996092435001657     
  0.996475865985579       0.999036879792862       0.989064519787411       0.989669608297474       0.987818510764055       0.985904948974789       0.990520657343896       0.992299192075471       1.355861012799242E-003 -6.375854561589872E-004  4.023876978220457E-003   1.00183157052838       0.990052840169927      -5.337541208909728E-003  2.623943096583096E-003  0.990506848335724     
  0.987184903914993       0.988574247675327       2.610035604348035E-003 -4.028740945271692E-003  0.991249286122571       0.999451248555061       0.998912673817890       4.084507757036792E-003  0.988676237618276      -2.574127944008476E-003 -3.749144726113285E-003   1.00274085650647        1.00080887119080       0.994400011641713       0.998537653579837        1.00061346083645     
  0.993293967229167       7.411876162421494E-003 -2.401375883736799E-003  0.999180161273960       0.998330118076486       5.715767366010656E-003  0.985223883054883       0.983242425729997       0.991456845190069       0.997574378227654       0.986476720874148      -5.799168355185740E-003  0.987881201434417       9.076917732171504E-003 -5.270170046783808E-004  6.456643275797048E-004
 -5.343841958618128E-003  0.983810182469816        1.00301927654652       0.986689875425314       0.984484123983059       0.997362049056024       0.995328278374915      -1.510170947089145E-003   1.00360986484968        1.00549044767741        1.00134317948386       0.984335008010990       0.982091140458914        1.00044871305421       0.993762922045473       0.985694412162253     
 -4.766550094092595E-003  5.699530782784712E-003  1.897472394590347E-003  7.459034784097311E-003 -7.113268317957254E-003 -1.596101944776957E-003 -1.382215345699217E-004  5.394460243986901E-004  2.088230438540650E-003  0.994281694626827        1.00218900508456       0.995183464558591       0.987818146801447       0.992104153088831       0.981431318697622       0.979272957963084     
  0.982261750887141       3.787474009951193E-003 -5.547075901158246E-003 -7.416275715668269E-003  0.977122400065485       0.989288178465757       5.622296392362491E-003  0.985537764108390       0.990492000830794       0.993243752681054       0.999957563470110       0.999186926830458       3.463166058247878E-003   1.00494730346036        1.00391695332576       0.996128313797079     
  0.998082486292587       6.235292186146243E-003  0.999577216860789        1.00188163362780       1.084626582032341E-002   1.00249859985069        1.00644113150548        1.00418746451324        1.00678864918198       0.989629541895188       0.992788501218721       0.988613016961751       1.547169446861028E-003  7.392301372269162E-003  0.989574565975731       0.985462565338893     
  0.982805144836899       8.860698891714237E-003 -6.002864756345355E-003 -3.785007858529297E-003 -2.567372737200115E-003 -3.832411508975858E-003  0.990911594280445       0.992028699501896       0.980140859834256       0.977944822387577       0.975563312298943       1.121463012793114E-002  0.991617965581231       0.995571974528530       0.994547419820000       0.996663581159687     
  5.222550074337701E-003  1.316229713092186E-002  0.987222398891558       0.986917623690290        1.00280252393376       0.988853537267514       9.275440871714925E-003  0.986892028454795      -4.029972083073056E-003 -7.948224321010859E-003  0.980935746115381       0.979701701874562       1.282620681483318E-002  0.981487329215649       0.977213977636863      -6.000437345228511E-003
  0.984979732959974      -7.484275220926906E-003  1.087753632084900E-002  0.994150686039633      -2.866616439923625E-003  3.598174310388194E-003  0.974934288063169       1.118442325103497E-002 -3.883911322182718E-004  1.119326778427386E-003  1.515425136954204E-002 -9.830209707121906E-004  7.142984292131196E-003  0.978327001669577      -6.317845459946302E-003 -9.021266434879294E-003
  9.168249383307981E-003   1.00514565841135        1.00804152818356       0.979033973983144       0.976579764547131       0.973463396421038       0.984123595749137       0.981978540023104       0.993275468547951      -1.431624759620606E-003  1.310046814868998E-002 -9.752743863079552E-003  0.976299395141306       0.973935755380913       1.492907083932129E-002  4.816382392015992E-003
  8.624253240015357E-003  1.121744103557198E-002  0.972581177122477       0.970197529040807      -8.161645776097740E-003 -1.030928825731620E-002  2.773995807890716E-004  1.305411462749443E-002  0.983322035136660       0.980498315578685       0.982390796585226       0.979765379119531       0.980480734012073       0.980034214767699        1.00846859870177        1.00519754437400     
 -5.783861509925018E-003  9.562891934322058E-004   1.00172537065103        1.00096552638053       0.984394394659039        1.00382537936961        1.00347309939405       0.971442345680375       1.712438743244528E-002  0.981437872258479       0.982829107801952       1.101208151839752E-002  0.998251759610470       0.989153696713269       0.968868283396055      -3.693938329077585E-003
 -5.156602573397272E-003  0.985153546990842       0.995603709678303       1.528433335903004E-002  0.979089450538770       2.863857691067802E-003  1.727195089788489E-002  1.510604579675823E-002  0.973093917378432        1.00744295458953       0.978197900390967        1.00092502473465       0.999854967584418       0.977936816848625       0.997140026634818       1.335696146497659E-002
 -4.209800305659827E-003 -8.192597232200382E-003 -2.544384760666203E-003 -9.956632684329123E-003 -9.641099735919459E-003  3.360686974731888E-003  0.975221780619559       0.975493217071947       0.972916235487725       1.141687684288364E-002   1.00909309217148       0.970397155232660       0.967928817400762       6.948778869335810E-003  0.971290068083885       0.965439711346113     
  0.963200273752785       8.709128051118873E-003 -7.893963767412556E-003 -1.080673699114125E-002 -1.939942791333772E-003  1.953498681217653E-002  1.734566266871382E-002  0.996017946979446        1.00265391123979      -1.179128796280314E-002  0.982522076050950       0.979344214759945      -6.276379422705816E-004 -7.079834312852059E-003  1.497312417997470E-002   1.00156714462160     
 -1.046958418465204E-002 -1.281035411820425E-002  0.977279177993173       0.976798511930669       9.209069859762272E-003  9.804796759965529E-003  0.987195920942132        1.01056500638069       0.990095740423978       1.561401158834538E-002  2.235152779743343E-003  0.969080607883861       0.966586365330309       0.963949658556311       0.960888101215827       1.758715890542299E-002
  1.800652273501300E-004  0.970212090959886       1.373003657850592E-002  1.943782518989087E-002 -1.216607829875439E-002  0.992994498122069       0.994396431126655       0.997136495978566       6.874245609828780E-003 -6.510619886215331E-003   1.00577416596081        1.00573823076038       0.967373002371476      -5.550368785971598E-003 -4.901384674763259E-003  4.431238980589706E-003
  0.970466617155230       1.257481758862836E-002  0.998779836867233        1.00047149055889       2.190163420022269E-002  1.974313450174546E-002  1.741315881144825E-002 -3.748146001580444E-003  2.186063903719815E-002  0.974649754536954       0.971830924112654      -1.458089391342479E-002  0.987570140478167      -1.040761824621547E-002   1.01020097688529       1.567750951008590E-002
  9.120777910898378E-003  2.001445001224689E-002   1.00437462886066       0.967888875094727       0.965308194192943       0.995771206799573       0.962340941826027       2.428276812673501E-002  6.025471285994914E-003  2.221505911275637E-002   1.00836974818326       6.738450125172840E-003  4.061227570481981E-003  3.727359833543187E-003  1.799479813308688E-002  3.173205520175842E-003
 -8.673646916964824E-003  0.990069409958389       0.985081903560867       0.983065768907345       0.985480283609537       0.987516886560027       0.994714041224447       1.484907335841586E-002 -1.623968933037126E-003  0.965974576643353       2.062657097432746E-002  0.969165403454726       0.990576472687675       0.989592129362305       0.987238673986085       0.985030016926817     
  0.987922810021044       0.988860554379588      -1.222570863003225E-002 -3.133477819741080E-003  0.999959028681958       0.984198350082081       0.968069069272443       0.997653980106740       0.996434965449868       2.662172848500554E-002   1.00784690362204        1.00607753716926        1.00961131721349        1.01130597557277      -1.287597883465237E-002 -1.548020975998322E-002
 -8.282864172265789E-003  2.002640775880395E-002  1.751575524594992E-002  1.476518103690051E-002 -9.895065629559814E-003  0.990391253260364        1.00871784807240       6.046343334460078E-003  0.980204364675283      -7.013574760551045E-003  0.992068656359860       0.992774359799451       0.993928742359921       1.582160840705973E-003  0.972018364359744       1.276004578174913E-002
  1.232464050805476E-002  0.980664885102108       0.970401981116349       0.959028662963485       0.962844122644698       0.959964560115722        1.00387428456055       0.964486188334664       0.967507076442407       0.973383229324669       0.971707427157054       0.975364603211133       0.976279293435071       0.974667672168312       0.973038066151457       0.956986153453051     
  0.953711810435525      -5.133992024647729E-003 -1.265321895124095E-002   1.01180806397608        1.01301312224478       0.982136711984582       0.979571623119167       6.425359929573810E-003  5.763204496003573E-004  9.393475409500369E-004  6.066334898802938E-004 -6.147340254979111E-003   1.01109596813398        1.00679181870879      -1.025714265719018E-002  2.917333723669375E-002
  2.633049448050419E-002 -1.495384979762358E-002  9.437757186840957E-003 -1.534086016702384E-002 -1.827371487383489E-002  0.991741248517679       0.989839901979024      -1.245473754597603E-002 -1.520179740509269E-002  2.672606248237414E-002   1.01070986701991       1.207043928736418E-002  0.986226818771146       0.986815744350283        1.00278014298901        1.00877582433178     
   1.01164419724760       0.987439206221598       0.961659800487380       0.958717470034507       0.955491965557757       0.951965650878194      -2.795937724560231E-003  0.977627021880387       0.984662529878306       0.984077725973249       0.982367581412657        1.00891648282738       0.977247194618929      -1.214476078266095E-002  0.983836524896840       0.966828287548388     
  0.968745267629457       0.970095537040405       0.971267539525104        1.01080822863258        1.01138320187594      -8.646105407372949E-003 -1.788788045582900E-002  0.963252330724383       0.973641249319425       0.970720824836331       6.475799588069708E-003   1.00692195329950      -4.233096982937582E-003 -7.874603309965301E-003   1.01160879584031        1.00393276929587     
   1.00181268688399        1.01259924285416       2.285887081210723E-002  2.939820768480429E-002  2.668680063814731E-002 -9.254441717885562E-003  2.250936932485953E-002  2.430125318062562E-002  2.342327371234307E-002  0.977895435971335       0.976459546028147       3.480287255170694E-003  2.861188688942565E-003  0.998827312028964       9.576053378563067E-003   1.01368376695723     
  0.960720718873137       0.987409092578498       0.993127697903272       0.994979496141399       0.957452065533024      -1.194256258839612E-002 -1.507407815051533E-002  0.964338037106305       0.979969909013722      -1.510506176625578E-002  0.981046470032926       0.984260321589392       0.990628577804600        1.00621492720807       0.972733943138554       0.968909865058740     
  0.965847118002720       0.963561860226511       0.967530462371932        1.01305472021320      -7.386423397286352E-003 -1.091000859726636E-002  1.184600555344771E-002  2.446008260594950E-002  2.041132851914217E-002  1.763101822354332E-002  3.191912599484027E-002  2.947594448803152E-002  2.802217409479922E-002   1.00476975746886       1.466888133904701E-002 -1.663794379311939E-003
 -1.654724009777771E-003   1.01389240110263        1.01620138360402      -1.523460691939451E-002  0.954341947664117       0.951223665628131       3.232025865896344E-002  3.004324016633158E-002  2.779405958389677E-002 -1.245426562810841E-002   1.01356636990846        1.01726032322605       0.975167904264343       0.969727056750195      -5.319176424819369E-003  9.163211676113149E-003
  6.776944521873123E-003 -1.828460905418475E-002   1.01381329687054        1.01491118508623       2.474508373947212E-002  2.134528059670511E-002  0.965647525364140       0.967168594009919       0.968665208661004       0.968852278487567       0.997543018445824        1.00527852848954        1.00800980531455        1.00381493917373      -1.047600506834123E-002 -1.297122970004435E-002
 -1.514399772052492E-002  0.948037201488570      -1.068264360090093E-002 -1.409057017840553E-002  0.975071303381434       0.955831829124442        1.00877614043176        1.01161561173732       0.980879625659962      -1.399619673034942E-002  0.990988445080367      -1.765566644840455E-002 -2.094550544066256E-002  3.523365816055361E-002  3.305682562128329E-002  3.092281417287440E-002
  2.895231497774049E-002  0.972128178741795       0.974927741513474        1.00073775497902       0.999493634608244       2.373293751290412E-002   1.00693358793249       3.626949033741463E-004  6.260654071893905E-003  3.413897824830444E-003  0.966443858863541       0.968824338716448       0.978082189846385       2.451408509840090E-002  1.838504091542139E-002  1.573454878363200E-002
  0.999501518497772        1.00204088783155       0.998584852721172        1.00570095306424        1.01436887622356        1.01457142174122       1.280547259404378E-002   1.00329790614821       3.480853832797026E-002  3.192358842378593E-002  0.952777376741090       0.949517524935201        1.00512931524431       0.945945673601531       3.816356193178545E-002  3.592963783590968E-002
  3.381411911193326E-002   1.00876140949815       0.960584532446728       0.957095191788603       1.887738608299865E-002  0.962217298071316       0.984704108214708       0.976728960407153      -1.668710283317139E-002  0.965345297541857       2.075043081113709E-002  1.771432179047021E-002  0.963927408895468       0.965922197497126       2.046821263303279E-004 -6.928236446995699E-003
 -1.395266413102944E-002  9.814743344159415E-003  0.963641273730577       0.961439061837600       0.967765711142236      -1.751432519661893E-002  8.854506558678166E-003  0.954296351385164       1.453487360895383E-002  2.216097450756128E-002  2.557177546114123E-002 -1.238526724324330E-002 -1.532481871234549E-002 -1.376695474819325E-002 -1.709613053384073E-002 -1.752722563349332E-002
  0.954313296005396       0.958491737732003      -2.157425808466829E-002  4.119640358148201E-002  3.878964341140764E-002  3.644494890151805E-002  3.465866328211545E-002  6.775512572209388E-003   1.01214431305870        1.01671758832861        1.01866951411547        1.00949819896746        1.01640506024052       0.971514934851868       0.974911231795649       0.960291941992157     
 -2.114673652547169E-003  3.793804795891525E-002  3.517085511416827E-002  3.214292177835188E-002  0.951441373260929       0.947667489321769       2.412353408610324E-002  0.996472138543710       4.246624713128091E-003  3.919772404589680E-003 -1.794117809087530E-002 -1.575405798438269E-002 -1.762643459467527E-002  0.962277827125561       0.958378137672905       0.977822240543085     
  6.144448503697583E-003  4.012831835848317E-003  1.309950956608417E-002  1.153427715786274E-002  0.943114138121010       0.948403098269183      -1.830163753758355E-002 -1.823227989923229E-002 -1.753254404574137E-002 -2.132721862858168E-002  0.964595674524321       4.438700683491325E-002  4.193135127933056E-002  3.899630602640970E-002  1.951053814002658E-002  0.954069239721149     
  0.957483127830273       0.959649999505860       0.950538353008551       0.956221745365522       0.952670405128266       0.949064899595160       8.167853083167177E-003 -1.229387368617356E-002  0.997503803051026       0.974071040348063       0.972859346310257      -2.027919337390182E-002 -2.024216629274917E-002  0.970520512441864       1.609601496327062E-002  1.337893095251929E-003
  0.981200542080514       0.984243754528860       1.657813017887378E-002  2.098827024033067E-002  1.778419798231106E-002  1.440993962839910E-002  4.117174805648079E-002  3.852718332923618E-002  0.978533319187310       0.973335194431928       9.957194751088418E-003  6.652452565050655E-003  0.944961704404314       0.941470840881793       8.607363629737562E-004  1.112446873914508E-002
   1.01395389996583       0.960492685511283       0.956364679817281      -1.923672249130760E-002 -2.147809314742572E-002  0.937881013960233       0.934240070639460       2.309525105065843E-002  0.947009658572564       3.566897863055453E-002  3.248690304152828E-002  2.687750468231043E-002  4.770168894864773E-002  4.530857640695036E-002  4.285813652014592E-002  4.078947062115725E-002
 -2.692076100717758E-004  0.987447712665372       0.990675278960824       0.954899504895922       3.651106714089746E-003 -2.037567826254979E-003   1.01395433467268       2.444186000038548E-002  4.445099840601527E-002  4.184816028020215E-002  3.933010293969584E-002  2.025535889835030E-002  7.324801306437498E-003  1.342562625452825E-002  0.943504892814721       0.939923279360952     
  0.942141284005712       0.987413722850483       0.993866624049266       0.993938584080752       0.945189276484645      -2.302065411287287E-003  0.958498548043410       0.951162676258715       0.947398835386495       0.988384515997813       0.992074151359607       0.938048169259618        1.01051308158604       0.990685431447145       0.934249684661476       0.956383809026532     
  0.954373889382211       0.952227966464956       0.971409584006472       0.945554846013328       0.957341960504654       1.007686621100915E-002  6.475552488874613E-003   1.01625293306711        1.01483138678323        1.01626417080397        1.01849807689763       7.409668130046547E-004 -1.491255242858882E-003  1.076476111417025E-002  4.780799567503224E-002  4.505172293277790E-002
  4.250667951465869E-002  4.102276407968915E-002  0.950028300391721       0.945913157938010       0.930244774991540       2.124784563137867E-002  1.790397135223492E-002  2.693281907140688E-002  0.989328270505384       0.978061291847421       0.981939836817781       0.985676072688909       0.974773648267449       0.974764872451220       5.112179880250329E-002  4.869058518094606E-002
  4.622899432634250E-002  4.385770555939680E-002  4.078160509265558E-002  0.953422403700661       0.955822685132541       1.438808664596598E-002  1.712801498527042E-002  0.961367026045128       0.993002529889140       0.963887778237851       0.959874429656167       0.966438613937996       0.939664341711122       0.997871255201217        1.00086982635345       0.994079053788180     
  0.942115649156881       0.938432089294437        1.00175744259823       0.948397765986589       1.378562358865206E-002   1.01743455047934       2.854500900061896E-002  3.069685578954701E-003  0.936178416559158       0.952343036487881        1.00018908517711        1.00292757687816        1.00605543779338       0.967172283614717       0.944518038147413       0.949451485461588     
  0.944901975032364       6.749163672525177E-003  5.131855807940790E-002  4.841614314768053E-002  4.522683694770033E-002 -9.064964487235247E-003 -1.215964384580917E-002 -1.557212382428126E-002 -5.346446472683770E-003 -7.714153942546212E-003 -3.403767972290533E-003  0.987279853111623       0.979212579313073       0.999210481494273       0.944214226831905       0.936257075961763     
  0.932239487635216       2.496814561586611E-002  2.888422954166679E-002  2.419738588876206E-002  0.996767168690479       0.998113360464967       0.990654673456681        1.01777839252033        1.01986424942314       0.990145343019083       0.995666922999200       0.996791080065579       0.993923082270343       0.984061132173784       0.962816837019736       1.022493045709555E-002
  6.394296987183528E-003  0.934393723051203       0.950432590924876       0.948098003275382       3.181733356067574E-002  3.072655953015900E-002  2.875358290229866E-002  0.941676983207382       0.947027891036119       0.943612591266947       5.467057126936085E-002  5.216262774083513E-002  4.956809733108054E-002  0.983015500721592       0.986570720930819       0.987070971623539     