 VARIABLES = "X" "Y" "RO" "U" "V" "P" "M"
 ZONE T="  0.000000000000000E+000 " N=        9944  E=       19548
 ZONETYPE=FETRIANGLE DATAPACKING=BLOCK
 VARLOCATION=([3-7]=CELLCENTERED)
  -19.9782054645671       -16.7460447536127       -13.5432470514743       -10.4462771124608       -7.39483127129757       -4.39431260318683       -1.43672854734527        1.47853524247441        4.40194279230921        7.38347804238703        10.4122197804982        13.5308676756442        16.7310607632789        20.0189460056259        20.0156650185539        20.0123451374732     
   20.0090067226427        20.0056742799471        20.0022854763303        19.9988742323503        19.9954939648514        19.9920871178897        19.9886881104951        19.9853470049941        19.9820070605281        19.9783478910574        16.7317203104092        13.4557822172063        10.1645634122701        6.87452312340184        3.53259687976399       0.170578499054329     
  -3.16443525887912       -6.48474521199279       -9.79114624567630       -13.0836966857758       -16.3754018560739       -20.0188035791356       -20.0155069002833       -20.0121812769038       -20.0088400757232       -20.0054989473046       -20.0021446450312       -19.9987763328347       -19.9953939522161       -19.9920253568386       -19.9886729196427       -19.9853365630757     
  -19.9819979716434       0.999698084529488       0.998180885499275       0.996668102157691       0.995165560874720       0.993618444180452       0.992010410877026       0.990336612632378       0.988601528893197       0.986805042790607       0.984944824822075       0.983006869133762       0.980999717295233       0.978907175728820       0.976741924860490       0.974500106127845     
  0.972174308538387       0.969761979171905       0.967262294663813       0.964672934363610       0.961994257230290       0.959221280209658       0.956346190311193       0.953357866702482       0.950246887765164       0.947041976999281       0.943721454782078       0.940252740529287       0.936678217086179       0.932985757129779       0.929153881611218       0.925147655889480     
  0.920997717265077       0.916698799921318       0.912237002400418       0.907603334363054       0.902791331663791       0.897794454237337       0.892600105773591       0.887195509148604       0.881572984214810       0.875724747650091       0.869651923419859       0.863347264997146       0.856802807186772       0.850008518260387       0.842955518158870       0.835635303340590     
  0.828041477403040       0.820165594547180       0.811999370306798       0.803534403195584       0.794761831842776       0.785673986531342       0.776261944894401       0.766401538960194       0.756181672737785       0.745590912802241       0.734618574719705       0.723257630824461       0.711495691453970       0.699320088301876       0.686723533501762       0.673694231960487     
  0.660218229955750       0.646288093829751       0.631890281742979       0.617008050840686       0.601630223007863       0.585736096784205       0.569313117490081       0.552345728790964       0.535423108018678       0.518463071339398       0.501433328347744       0.484333932613509       0.467164470391950       0.449275119185532       0.431981991754238       0.415283574667377     
  0.399178218006726       0.383650011553796       0.368614267741952       0.354052663703532       0.339961167285289       0.326348655629847       0.313200148503232       0.300516731737232       0.288299379447084       0.276529822166895       0.265183021734704       0.254211485782690       0.243602603251283       0.233343986592362       0.223428384541498       0.213847706162071     
  0.204590270563864       0.195644835735291       0.187006805380847       0.178659914875287       0.170594472498873       0.162793456132023       0.155250032009866       0.147957809888933       0.140910691860744       0.134102464912719       0.127526232678109       0.121176426518350       0.115047839384715       0.109135165156440       0.103433871264478       9.793958772607415E-002
  9.264813386313389E-002  8.755603290551635E-002  8.265956263033011E-002  7.795497271932754E-002  7.352049375659371E-002  6.924900649913637E-002  6.514218979880539E-002  6.119830492864935E-002  5.741749103261827E-002  5.377768704927730E-002  5.029056490760618E-002  4.695403544842337E-002  4.375034511515066E-002  4.065024446651663E-002  3.765060409654149E-002  3.472852700970937E-002
  3.188433308813685E-002  2.912307403665468E-002  2.644756026022718E-002  2.386172829037971E-002  2.137167737191954E-002  1.898502726782210E-002  1.682070017916775E-002  1.473649178623095E-002  1.275209525661825E-002  1.088642207635154E-002  9.164304366021976E-003  7.520681738971298E-003  5.918818047244961E-003  4.461646318719582E-003  3.139919450779908E-003  1.991233322408666E-003
  1.075346972579565E-003  4.603336319105635E-004  1.620694587515139E-004  1.006384901705848E-004  3.550900172899947E-004  9.675887526819630E-004  1.890189933064807E-003  3.034056948576598E-003  4.328189140348616E-003  5.718163980497963E-003  7.399573767576917E-003  9.169530846358163E-003  1.104323300551121E-002  1.293498153855423E-002  1.487415981237297E-002  1.690841553716598E-002
  1.908815442310611E-002  2.137991411181559E-002  2.379353613400990E-002  2.626967381461775E-002  2.881581070812640E-002  3.147579959680999E-002  3.428910145274664E-002  3.725322731545491E-002  4.035776732674466E-002  4.359077352208630E-002  4.694143699783778E-002  5.039792898318556E-002  5.395685608165837E-002  5.761807844591799E-002  6.137426810016931E-002  6.558524689051803E-002
  6.994188698914426E-002  7.444163030382692E-002  7.908136351754985E-002  8.379247318521160E-002  8.864407397805060E-002  9.366243477410024E-002  9.884549180882500E-002  0.104195360248198       0.109702339142280       0.115385877115792       0.121286972969741       0.127455361738106       0.133904088673681       0.140636379667925       0.147648790029577       0.154942583954710     
  0.162520897517956       0.170384788216028       0.178538246711825       0.186984789713469       0.195728901083280       0.204955805177571       0.214523857549169       0.224438825163947       0.234709798111685       0.245345071812350       0.256351805040875       0.267740377741940       0.279521569405120       0.291702915007576       0.304295250001557       0.317310913235376     
  0.330757412980871       0.344644680597565       0.358986147872399       0.373782115313389       0.389043245603010       0.404775634080241       0.420964782415995       0.437621024803693       0.454686940995152       0.472154262174054       0.489696883835486       0.507108077987739       0.524386157633907       0.541533555298955       0.558554030685727       0.575129738548256     
  0.591237191650715       0.606856799382576       0.621987571573263       0.636631662032780       0.650753259427510       0.664363804877089       0.677478605709007       0.690115578876345       0.702295015511947       0.714068223833485       0.725476963945072       0.736529252987629       0.747233348210843       0.757591404991852       0.767611788093216       0.777303269667165     
  0.786674604964006       0.795647877317953       0.804292085897841       0.812612021479180       0.820613545414262       0.828301276932844       0.835679526078909       0.842755509747491       0.849591745969378       0.856218101185360       0.862637655248084       0.868854183820657       0.874871545986176       0.880693723458060       0.886323998030548       0.891765472273777     
  0.897021587077462       0.902096686680583       0.906998494559352       0.911731549751181       0.916300348652333       0.920515712446899       0.924615315048254       0.928597276224688       0.932464480894455       0.936201993242201       0.939806810386006       0.943285292550396       0.946629689714034       0.949843617560382       0.952942419572198       0.955902013281842     
  0.958729055367566       0.961479951488991       0.964151653078230       0.966742325421097       0.969250719348826       0.971676259738697       0.974020125589316       0.976283364074204       0.978469293454831       0.980581821119692       0.982572761811290       0.984509304798883       0.986376778821294       0.988179934686666       0.989922740689284       0.991606494640328     
  0.993226749627206       0.994784777723889       0.996283094217935       0.997777599715829      -1.120274393062155E-003 -9.128358720160521E-004 -1.072942361259784E-003  0.995943861355042       0.997385288596491       0.995937978408555       0.997169261383330      -2.543715810715603E-003 -4.393098997044835E-004  0.995605760976927       0.996384824513075      -2.087795633287830E-003
  0.994554244354459      -2.426949581480352E-003  0.994060027197820       0.992402120122648      -7.236475275320161E-004  0.992835713409613       0.993818185328877      -2.471941545060766E-003 -4.012568808468635E-003  0.994912219862225       0.995072834316342       0.998808638749776      -1.469423278128960E-003  3.229702397356660E-004  0.991087605304168       0.989319566477566     
  0.987547640465596       0.991931988795331       0.998116419579006       0.993395989435917       0.991185443485145       5.020089640250515E-005 -2.136506902926910E-003 -4.110493561179512E-003  0.992820659974135       0.997364972107271        1.00045806518768       0.998096900423959        1.00114042141062      -3.389339478369320E-003  1.359702555950668E-003  0.996492545755892     
  0.996903291861627       0.999459081307094       0.989455263863531       0.990104190590404       0.988255086928727       0.986343582913816       0.990915525133119       0.992694220325670       1.140829949136844E-003 -8.347431524702787E-004  3.788261442208530E-003   1.00224593312357       0.990442057270797      -5.455734168511040E-003  2.637251452320642E-003  0.990940663514423     
  0.987570139737770       0.988961778415239       2.382868803763114E-003 -4.177911275091608E-003  0.991682528516103       0.999874746985713       0.999320987596246       4.122158380744946E-003  0.989111714153178      -2.617676396867971E-003 -3.841936683213031E-003   1.00315728431587        1.00121977355939       0.994829750149645       0.998962918820636        1.00103677430617     
  0.993725213002637       7.492346519218233E-003 -2.586119337878662E-003  0.999591579236962       0.998733954296679       5.776291581683400E-003  0.985603657348943       0.983616658776625       0.991846955159343       0.997973242028811       0.986858932606394      -5.930048539367241E-003  0.988265468404876       9.172900272449226E-003 -5.559592205841845E-004  6.427865407159230E-004
 -5.424007277399159E-003  0.984251301493930        1.00343072715091       0.987127387524364       0.984924118428143       0.997789598277982       0.995757607108524      -1.528426276461171E-003   1.00402379767734        1.00590226758474        1.00176379973399       0.984711780483150       0.982462208165688        1.00085543990789       0.994158135115052       0.986073749728012     
 -4.822719407565298E-003  5.770253911252314E-003  1.675484070233102E-003  7.545935352585069E-003 -7.180278620848854E-003 -1.791564060286856E-003 -1.315675419505019E-004  3.282083082980982E-004  2.110581130202225E-003  0.994712361758054        1.00259764914057       0.995578323552943       0.988254391387836       0.992536753702451       0.981875354410511       0.979719124023170     
  0.982704516913799       3.834419009363565E-003 -5.649885036510462E-003 -7.529436207059789E-003  0.977570735829904       0.989673715280090       5.381492816070142E-003  0.985977138456749       0.990878090122990       0.993675864472816        1.00035970872364       0.999584393240540       3.233812180052278E-003   1.00536249033247        1.00433527115404       0.996557520672660     
  0.998510402995833       6.319471064610965E-003   1.00000253089903        1.00230479981868       1.095903527079024E-002   1.00290360454432        1.00685787548870        1.00459584996611        1.00719648690231       0.990064316044355       0.993178914704212       0.988996180203220       1.578588020325043E-003  7.148553032839251E-003  0.990009245563280       0.985901351531916     
  0.983247020302975       8.961375873759029E-003 -6.151118503365254E-003 -3.965866653467287E-003 -2.575346411987507E-003 -3.864300383413835E-003  0.991345696900537       0.992462288047913       0.980585557921896       0.978391535820642       0.976012356234265       1.097125248168140E-002  0.992004171247855       0.996002183311707       0.994979052549576       0.997057603841405     
  4.988557743939451E-003  1.292134027496972E-002  0.987604071833863       0.987297196358680        1.00322381984318       0.989289261959627       9.030979858964967E-003  0.987329409761382      -4.198786490829909E-003 -8.079463832059264E-003  0.981379455014791       0.980066062327552       1.295584856251630E-002  0.981857229009552       0.977571127761422      -6.163309914970205E-003
  0.985356099787497      -7.574172810645309E-003  1.099654160072631E-002  0.994540860401844      -3.059140727797385E-003  3.654819639558031E-003  0.975285385162277       1.094858595182686E-002 -5.958787499135370E-004  9.025920863184934E-004  1.491683251506121E-002 -9.672299310047443E-004  6.906552197573764E-003  0.978686348834747      -6.361162287817913E-003 -9.073941404926461E-003
  8.931280065726901E-003   1.00556548530671        1.00845959456283       0.979479042119988       0.977026942491715       0.973914065578339       0.984563813576047       0.982420808737744       0.993708565931425      -1.634663200630086E-003  1.286680811812334E-002 -9.851009584247302E-003  0.976653991279605       0.974284087211939       1.507420225567351E-002  4.589013534887994E-003
  8.731868537041278E-003  1.098683553678224E-002  0.972925748492080       0.970535468184320      -8.307696193623867E-003 -1.043982879463138E-002  6.618163322198229E-005  1.318958629373955E-002  0.983695456542326       0.980863305621154       0.982759819917932       0.980127176894739       0.980924385478438       0.980477962623768        1.00887908856617        1.00560247703156     
 -5.957549410029611E-003  9.967689096839342E-004   1.00212580695223        1.00136147445287       0.984766499665370        1.00424709585311        1.00389615940641       0.971784067628142       1.728379647736409E-002  0.981802822926532       0.983196427481470       1.113811874939884E-002  0.998644665701811       0.989536179505785       0.969203547253563      -3.692012938939705E-003
 -5.177073435186647E-003  0.985592538006677       0.995993161778098       1.543404470170356E-002  0.979449140898936       2.640626858432112E-003  1.703952704679355E-002  1.487629476228679E-002  0.973545706688812        1.00785672741286       0.978643191737783        1.00135019434319        1.00028228996463       0.978294768761293       0.997569647962976       1.349818144161171E-002
 -4.397951064367739E-003 -8.350232592399233E-003 -2.742314244795505E-003 -1.007148204027009E-002 -9.718342263484685E-003  3.428039962016731E-003  0.975671845441004       0.975845250034658       0.973261732964414       1.155022793761202E-002   1.00950832568087       0.970851382546271       0.968384913333755       6.719204109913590E-003  0.971743128154789       0.965897666891983     
  0.963659704573426       8.824347038499795E-003 -7.924479159903018E-003 -1.084482293349749E-002 -1.915253236189440E-003  1.930884725920914E-002  1.712142613643896E-002  0.996449019146166        1.00307903146579      -1.189479821266063E-002  0.982963435330383       0.979788376295625      -8.330407981220502E-004 -7.253025778281567E-003  1.475146787596825E-002   1.00199416360619     
 -1.061356088731772E-002 -1.294049980250534E-002  0.977635187931128       0.977151790739672       8.978619739496364E-003  9.581487971776983E-003  0.987572930495719        1.01098116334568       0.990476931664421       1.576719599858888E-002  2.018087395985543E-003  0.969535137081315       0.967042605656445       0.964407721734373       0.961348585643591       1.775026003582060E-002
  2.314392194486940E-004  0.970550892201039       1.387561926576200E-002  1.961113677158866E-002 -1.225360010447404E-002  0.993380257842919       0.994781583619321       0.997525053863486       6.651702296389775E-003 -6.520190424690145E-003   1.00619526119919        1.00616111959472       0.967704520009987      -5.734409998008953E-003 -4.889747984895077E-003  4.210545505644760E-003
  0.970919698832324       1.271697366521073E-002  0.999208871101264        1.00090011518387       2.168265350640188E-002  1.952518595309533E-002  1.719714483662173E-002 -3.940569880360326E-003  2.204755877413993E-002  0.974998968967333       0.972173475887810      -1.467951688429031E-002  0.987944773790736      -1.056204057977111E-002   1.01061347605220       1.583344418843079E-002
  9.243159524394107E-003  2.019136797979051E-002   1.00479960309067       0.968343538136148       0.965764309616401       0.996155465458205       0.962799186241299       2.407120044812582E-002  6.118965826704257E-003  2.200363324176783E-002   1.00878999755796       6.524693889729454E-003  3.847886689004491E-003  3.521891157485076E-003  1.816138638033707E-002  3.250842684586471E-003
 -8.845106764420676E-003  0.990447588517307       0.985452981507207       0.983432393881698       0.985850668355897       0.987889318592739       0.995146579768095       1.463612718122983E-002 -1.823135392167068E-003  0.966302113552094       2.080703919246030E-002  0.969618676551232       0.991011544932073       0.990027564136347       0.987675848964602       0.985469147862150     
  0.988359766846442       0.989297286844473      -1.228646265595884E-002 -3.099974456373637E-003   1.00035070486439       0.984564205698390       0.968401905831593       0.998084445911727       0.996866857864121       2.641774684349687E-002   1.00825163423830        1.00647964598454        1.01001871266915        1.01171565334389      -1.301826301584127E-002 -1.561035135520092E-002
 -8.446765121607362E-003  1.981626138830933E-002  1.730811905797882E-002  1.456086591091270E-002 -1.005747173195895E-002  0.990766552914248        1.00913968590040       6.149239468751738E-003  0.980565570548163      -7.193163695936799E-003  0.992451074034823       0.993155385326451       0.994307311385648       1.371540745522469E-003  0.972469510882127       1.253303050311294E-002
  1.210678782929135E-002  0.981024195110050       0.970853598900666       0.959489516816675       0.963162263474011       0.960275240434889        1.00427663069530       0.964809379084551       0.967960625364751       0.973832403083111       0.972157491658806       0.975812227566074       0.976725826526826       0.975115406861858       0.973486951500085       0.957289041015792     
  0.954006056622983      -5.320133496102447E-003 -1.280426967747506E-002   1.01222230025809        1.01342894528020       0.982578020145280       0.980015238444413       6.537015430405720E-003  6.407248021413325E-004  7.356971659991126E-004  4.099436234556313E-004 -6.126462312692462E-003   1.01151573284791        1.00721530498646      -1.042559787564964E-002  2.898002916667089E-002
  2.613368339042962E-002 -1.502695167778059E-002  9.225814010221472E-003 -1.548181419007167E-002 -1.840472407849889E-002  0.992175922666159       0.990276301083167      -1.257021823759315E-002 -1.531749690033049E-002  2.693518823463053E-002   1.01111433244310       1.186177752628202E-002  0.986665453019052       0.987254130602048        1.00317453685142        1.00917768729589     
   1.01204583407125       0.987877366307252       0.961975943179972       0.959026097102970       0.955792499528589       0.952257325313980      -2.987263888327036E-003  0.977979986060036       0.985102156753860       0.984517635486363       0.982808592799505        1.00933939624565       0.977692913703346      -1.230413263812726E-002  0.984276816167067       0.967282908716416     
  0.969197303341787       0.970546299663764       0.971717263889084        1.01122607790649        1.01180428808086      -8.820960017527059E-003 -1.797049947309352E-002  0.963572669393384       0.973987355490185       0.971060449388023       6.270521113522448E-003   1.00732111711516      -4.192624440621390E-003 -7.874047760286053E-003   1.01203105778747        1.00433159890239     
   1.00220308057196        1.01300632541607       2.265447092903601E-002  2.962051530993942E-002  2.689451165376882E-002 -9.244633666023702E-003  2.269939089432462E-002  2.450011045328972E-002  2.361649721429538E-002  0.978247595512915       0.976905889154308       3.281693188202848E-003  2.951145372114567E-003  0.999214783663193       9.704352438272288E-003   1.01410160827722     
  0.961035032945239       0.987777991968917       0.993561892189147       0.995413100951389       0.957915054506489      -1.210859770624675E-002 -1.513029424008924E-002  0.964793807674393       0.980413105457564      -1.525263442593446E-002  0.981403626810607       0.984621877322376       0.991000097376401        1.00663963092120       0.973077545760786       0.969245330987060     
  0.966174239186350       0.963883015768045       0.967862383481645        1.01346616069611      -7.356928240206589E-003 -1.091886601520171E-002  1.164554554282680E-002  2.425370545662449E-002  2.020966017289558E-002  1.743223012226553E-002  3.173627718057097E-002  2.929021449113551E-002  2.784272114145492E-002   1.00516275443397       1.447307178995677E-002 -1.613468213639780E-003
 -1.592248165900983E-003   1.01430155331107        1.01661170219025      -1.538785467798601E-002  0.954806745685381       0.951690159253244       3.255479563277831E-002  3.026725825312949E-002  2.800749450443604E-002 -1.245377970260003E-002   1.01398589717189        1.01767800504881       0.975516327257622       0.970063504476535      -5.273147951077290E-003  8.959713333644603E-003
  6.894570270694718E-003 -1.840007459318640E-002   1.01421733039170        1.01531255773590       2.494443522858521E-002  2.152923156050311E-002  0.966101486914533       0.967621008294439       0.969116499048462       0.969303106592501       0.997925954026320        1.00567480603356        1.00840584240074        1.00420395320183      -1.064665237753446E-002 -1.313244754052574E-002
 -1.530230871464896E-002  0.948505442976545      -1.066482820426016E-002 -1.408109219320112E-002  0.975418673926063       0.956294844288676        1.00920012929316        1.01203879011992       0.981322362780138      -1.401292273793806E-002  0.991424588407822      -1.771684331963302E-002 -2.101319450547949E-002  3.547866036595771E-002  3.329203529353712E-002  3.114904053860799E-002
  2.917045815075812E-002  0.972469034178550       0.975273456283316        1.00112405196423       0.999875390556837       2.353898308440046E-002   1.00732459370925       1.711109323772777E-004  6.062435366244043E-003  3.220906956269720E-003  0.966771869389697       0.969157276455186       0.978433086960783       2.471186312939674E-002  1.855519453201047E-002  1.589363152055264E-002
  0.999931435825195        1.00246934340374       0.999016225584091        1.00608890045103        1.01478930281688        1.01499312229226       1.295169606020653E-002   1.00372480406699       3.463750332184350E-002  3.174824940093456E-002  0.953242005729370       0.949983920459784        1.00555629901603       0.946413980183885       3.841815441415828E-002  3.617420194253581E-002
  3.404988544825871E-002   1.00915021190247       0.961043236621996       0.957556510979959       1.905107004665542E-002  0.962673734807035       0.985144285303027       0.977175044657503      -1.673237327316094E-002  0.965670182021444       2.055881569024120E-002  1.752484613250403E-002  0.964381906458081       0.966374997977460       1.897455326165453E-005 -7.107521072039888E-003
 -1.411631382257030E-002  9.948497422729668E-003  0.963962428104658       0.961755632626154       0.968094938716322      -1.761640382905273E-002  8.658017431866713E-003  0.954759501288720       1.434778542752512E-002  2.234906243525652E-002  2.577510876611655E-002 -1.241178751600117E-002 -1.535683218545153E-002 -1.381018364345608E-002 -1.711947180971259E-002 -1.767227837033035E-002
  0.954775297773999       0.958950825713730      -2.168906363372264E-002  4.146072188473971E-002  3.904290995981585E-002  3.668924686046818E-002  3.489533987827891E-002  6.898500749201343E-003   1.01254234482809        1.01712093223554        1.01907078501333        1.00989782993033        1.01680295400520       0.971852559710150       0.975255050820229       0.960748878410469     
 -2.304157002662771E-003  3.777989135195913E-002  3.500827330710607E-002  3.197665544892800E-002  0.951905768161543       0.948133653723356       2.394179973814541E-002  0.996851006454458       4.352334320324181E-003  4.028762898849188E-003 -1.797596691096864E-002 -1.576124870537091E-002 -1.762429112898900E-002  0.962732915257571       0.958835601446455       0.978267640640213     
  5.950973374167392E-003  3.825945011622556E-003  1.324992075195068E-002  1.134146991572702E-002  0.943582669101777       0.948684801103578      -1.844953836953625E-002 -1.838463050982295E-002 -1.767330123131927E-002 -2.145857443096234E-002  0.965049048195444       4.466103159433525E-002  4.219515490384165E-002  3.924852341588787E-002  1.968800886816524E-002  0.954367361816386     
  0.957789560756697       0.959962043297183       0.950827461636783       0.956525834904573       0.952965904095344       0.949351562341336       7.977728466324633E-003 -1.227125843101737E-002  0.997879597389943       0.974519143866521       0.973307732750447      -2.030864819075179E-002 -2.028871140544531E-002  0.970853900058891       1.625838689874645E-002  1.432304760622943E-003
  0.981555332893062       0.984602157021985       1.674438534064716E-002  2.080672833272987E-002  1.760420313143347E-002  1.423210931022907E-002  4.102678367498097E-002  3.837766967317594E-002  0.978883429258226       0.973672484104962       1.009608946956092E-002  6.780626808797811E-003  0.945234966460402       0.941735906363801       9.606651818638425E-004  1.094000401921792E-002
   1.01437709948676       0.960948382023023       0.956822654202824      -1.925043956152203E-002 -2.148145186538425E-002  0.938137689700302       0.934488294305458       2.328789773126308E-002  0.947289874870208       3.551482908557828E-002  3.232800288229436E-002  2.708587554914277E-002  4.798460813021155E-002  4.558168836503675E-002  4.312198003177247E-002  4.104577905966711E-002
 -4.485179229202693E-004  0.987812698064185       0.991043048377595       0.955200994048613       3.764337819099274E-003 -1.957902187263675E-003   1.01434919923795       2.426887195583307E-002  4.431899257940439E-002  4.171131562276276E-002  3.918942130458831E-002  2.043692442526897E-002  7.143677536509264E-003  1.358065371131301E-002  0.943777077154481       0.940187416739327     
  0.942611835501675       0.987775281399220       0.994240606827301       0.994308502205649       0.945658877923628      -2.210927086940952E-003  0.958808545831214       0.951455585531772       0.947682921439135       0.988822611408773       0.992510236100812       0.938520496230929        1.01090625140144       0.991049733893488       0.934723459878634       0.956843232626619     
  0.954833691578723       0.952688110092563       0.971858415934926       0.945833343827739       0.957649043936360       1.022116311820201E-002  6.609732802830817E-003   1.01665951142182        1.01524470264993        1.01667941620592        1.01891040684036       8.464912823469058E-004 -1.387681879041143E-003  1.058975708274690E-002  4.768935752283783E-002  4.492613092621973E-002
  4.237605320540858E-002  4.089344128277939E-002  0.950492280523469       0.946378817124708       0.930720049138539       2.107590468936623E-002  1.773365025208871E-002  2.675992208472355E-002  0.989766352024806       0.978506087025811       0.982381978134416       0.986116054324753       0.975220654898881       0.975211431812385       5.141318528330409E-002  4.897201186260535E-002
  4.650137723283811E-002  4.412202288102395E-002  4.103402003774732E-002  0.953721216583561       0.956126913453748       1.421991640153655E-002  1.729862645615401E-002  0.961683395375479       0.993438751239022       0.964208940303926       0.960186904790391       0.966763792604032       0.940135150838459       0.998303738483446        1.00130092766161       0.994445806847848     
  0.942387115909117       0.938695344721005        1.00213770309686       0.948861338754901       1.394564901464906E-002   1.01782863538589       2.838117974609944E-002  3.187329869461984E-003  0.936434015357273       0.952804830005404        1.00056358472137        1.00331296207808        1.00644003659470       0.967623770213519       0.944983061333635       0.949742275780811     
  0.945182877682830       6.578057802327287E-003  5.121450831969067E-002  4.830408558930688E-002  4.510700683461915E-002 -9.238382899890084E-003 -1.232725748513690E-002 -1.573222589830059E-002 -5.528748395928628E-003 -7.889153947569611E-003 -3.587032530705150E-003  0.987638035824292       0.979656357794380       0.999643083384136       0.944491275015592       0.936728987358334     
  0.932712831321428       2.480513802948435E-002  2.873219141149677E-002  2.439437448326390E-002  0.997138264306179       0.998482350602209       0.991015656933006        1.01819787478461        1.02026813998432       0.990583461794474       0.996101022551343       0.997225559303457       0.994359532923172       0.984416522160493       0.963270794372084       1.037492834644602E-002
  6.534809016288987E-003  0.934648280432262       0.950894490699962       0.948560132612574       3.204525409516552E-002  3.094970635552772E-002  2.896818547637833E-002  0.942144436362360       0.947491235401551       0.944076967110883       5.497021203071892E-002  5.245231286162159E-002  4.984795195498271E-002  0.983457069047647       0.987010570990581       0.987510745201190     