 VARIABLES = "X" "Y" "RO" "U" "V" "P" "M"
 ZONE T="  0.000000000000000E+000 " N=        9944  E=       19548
 ZONETYPE=FETRIANGLE DATAPACKING=BLOCK
 VARLOCATION=([3-7]=CELLCENTERED)
  -19.9782054645671       -16.7460447536127       -13.5432470514743       -10.4462771124608       -7.39483127129757       -4.39431260318683       -1.43672854734527        1.47853524247441        4.40194279230921        7.38347804238703        10.4122197804982        13.5308676756442        16.7310607632789        20.0189460056259        20.0156650185539        20.0123451374732     
   20.0090067226427        20.0056742799471        20.0022854763303        19.9988742323503        19.9954939648514        19.9920871178897        19.9886881104951        19.9853470049941        19.9820070605281        19.9783478910574        16.7317203104092        13.4557822172063        10.1645634122701        6.87452312340184        3.53259687976399       0.170578499054329     
  -3.16443525887912       -6.48474521199279       -9.79114624567630       -13.0836966857758       -16.3754018560739       -20.0188035791356       -20.0155069002833       -20.0121812769038       -20.0088400757232       -20.0054989473046       -20.0021446450312       -19.9987763328347       -19.9953939522161       -19.9920253568386       -19.9886729196427       -19.9853365630757     
  -19.9819979716434       0.999330303190194       0.997810879423929       0.996295950892729       0.994791349958996       0.993242185074824       0.991632099317823       0.989956245405581       0.988219115325563       0.986420598495870       0.984558369023309       0.982618412927423       0.980609287522014       0.978514790214132       0.976347619797762       0.974103919451015     
  0.971776277152516       0.969362143004948       0.966860697418005       0.964269621792826       0.961589278232516       0.958814682881942       0.955938020360250       0.952948166092302       0.949835696183632       0.946629348803771       0.943307434684745       0.939837361636775       0.936261530538837       0.932567809942569       0.928734715348698       0.924727305325015     
  0.920576231417275       0.916276231724441       0.911813408548207       0.907178778989450       0.902365889276704       0.897368212138908       0.892173165865333       0.886767991159297       0.881145029334268       0.875296521146835       0.869223616988967       0.862919097820107       0.856375027334950       0.849581403811507       0.842529377562166       0.835210474982563     
  0.827618327887185       0.819744516884467       0.811580780979895       0.803118738464680       0.794349543408121       0.785265535780058       0.775857797361969       0.766002215769120       0.755787642503008       0.745202627514772       0.734236460339189       0.722882075457691       0.711127038168953       0.698958624720062       0.686369477657633       0.673347723885778     
  0.659879321862537       0.645956735745917       0.631566314982977       0.616691200327281       0.601320086673985       0.585432143620174       0.569014680148714       0.552052004184386       0.535133048648988       0.518175629303120       0.501147449729610       0.484048566705851       0.466878586454898       0.448987646968988       0.431692033120417       0.414990401621780     
  0.398881264115082       0.383348856428902       0.368308600744863       0.353742285457325       0.339645982225861       0.326028665366715       0.312875432259429       0.300187440950146       0.287965727162982       0.276192066184248       0.264841453654018       0.253866417047642       0.243254371572616       0.232992950880279       0.223074921669772       0.213492206380349     
  0.204233133098216       0.195286466053164       0.186647613356197       0.178300311409487       0.170234868885610       0.162434263361654       0.154891660140806       0.147600666844300       0.140555182360073       0.133748989649811       0.127175187960802       0.120828203383418       0.114702822927395       0.108793734152431       0.103096397317989       9.760643468904387E-002
  9.231965723551185E-002  8.723257867535855E-002  8.234146687580440E-002  7.764256109231336E-002  7.321396704211884E-002  6.894867930457692E-002  6.484836276909155E-002  6.091126811432829E-002  5.713751918255147E-002  5.350508399542732E-002  5.002559921580437E-002  4.669696424060345E-002  4.350145464011266E-002  4.040989487656460E-002  3.741917341732551E-002  3.450648136709611E-002
  3.167216975594136E-002  2.892130875409983E-002  2.625673785031836E-002  2.368242220398951E-002  2.120448301056327E-002  1.883055494842718E-002  1.667888959439268E-002  1.460809483999698E-002  1.263783062022242E-002  1.078695306022276E-002  9.080142733341137E-003  7.453059154053874E-003  5.869779796294389E-003  4.432552995013095E-003  3.132809182447694E-003  2.008439557602083E-003
  1.119085270337841E-003  5.315185419597061E-004  2.586813762301462E-004  2.232322699352307E-004  5.119606881720594E-004  1.158881476347205E-003  2.114907419272028E-003  3.289994242836343E-003  4.613002063059588E-003  6.029598933327910E-003  7.739313276645877E-003  9.535887035320776E-003  1.143519599030663E-002  1.335075747865343E-002  1.531266379616206E-002  1.736927268624458E-002
  1.957155983746352E-002  2.188570976856552E-002  2.432167114388077E-002  2.681958743637438E-002  2.938707118671585E-002  3.206836430240140E-002  3.490321640122526E-002  3.788907534621761E-002  4.101542040014385E-002  4.427019716539402E-002  4.764251154537359E-002  5.112045420950154E-002  5.470061080179681E-002  5.838284024175597E-002  6.215977291446916E-002  6.639310661248386E-002
  7.077194898709822E-002  7.529370793550845E-002  7.995523554468929E-002  8.468759644475747E-002  8.956021599887797E-002  9.459944951614756E-002  9.980319142792313E-002  0.105173532705221       0.110700704933954       0.116404195807425       0.122325102312957       0.128513260890408       0.134981680016134       0.141733514480068       0.148765229917951       0.156078015929380     
  0.163674938661454       0.171556980011101       0.179728061231205       0.188191626902845       0.196952088839199       0.206194895477175       0.215778026221312       0.225707154953523       0.235991278906771       0.246638593767513       0.257656151653147       0.269054222724246       0.280843469022467       0.293031297985939       0.305628411405970       0.318647005040278     
  0.332094432973274       0.345980463333065       0.360318352893514       0.375108220325120       0.390360534736599       0.406081190020199       0.422255498826236       0.438893584143063       0.455937897680696       0.473380009143680       0.490894206288204       0.508274165364610       0.525518331829228       0.542629268546985       0.559610867870279       0.576146229252954     
  0.592212215279696       0.607789577593961       0.622877612193343       0.637478735835807       0.651557500499513       0.665125556296922       0.678198383722647       0.690794040513998       0.702932927383956       0.714666334360252       0.726036010900319       0.737050060675686       0.747716812994688       0.758038503759989       0.768023544326282       0.777680740203085     
  0.787018869045989       0.795960333579771       0.804573921519287       0.812864430760604       0.820837718124582       0.828498395828650       0.835850762125232       0.842902007139821       0.849714426152030       0.856317776008229       0.862715118618030       0.868910207791231       0.874906879612368       0.880709092105420       0.886320106027686       0.891743004220305     
  0.896981207761022       0.902039039362950       0.906924191052497       0.911641182899592       0.916194494094991       0.920395585466684       0.924481325953720       0.928449843877101       0.932304017526012       0.936028965095665       0.939621697672984       0.943088558180821       0.946421826297837       0.949625108944836       0.952713701844105       0.955663603831258     
  0.958481450166361       0.961223464459175       0.963886610498443       0.966469061044531       0.968969571536683       0.971387568329379       0.973724225534396       0.975980585082655       0.978159952479880       0.980266220289904       0.982251339531844       0.984182296895348       0.986044459797204       0.987842560777321       0.989580552311400       0.991259723849814     
  0.992875635269704       0.994429549449937       0.995923969266739       0.997414647478687      -1.009042579921877E-003 -8.262852853554514E-004 -9.344759489668704E-004  0.995570389797797       0.997013415990777       0.995564018190906       0.996811151846184      -2.418724731137411E-003 -3.779055026581419E-004  0.995250898079711       0.996030778268226      -2.009919379845917E-003
  0.994179063650172      -2.325147631930233E-003  0.993708442893519       0.992054717655180      -5.522181108158777E-004  0.992458334769625       0.993441625768796      -2.320520516157919E-003 -3.896365521274821E-003  0.994560393301407       0.994723824342385       0.998447922622524      -1.416315192489541E-003  3.586495779240381E-004  0.990708181643607       0.988938162410328     
  0.987164272933331       0.991553404288322       0.997759620907580       0.993047779019646       0.990842922336085       2.576638352548941E-004 -1.945323002571418E-003 -3.974545650367808E-003  0.992442824015904       0.997012437102765        1.00009624364643       0.997725378879506        1.00077545054824      -3.319565708435997E-003  1.370347063553495E-003  0.996145657869409     
  0.996529734130522       0.999090075018618       0.989115479212132       0.989723763975127       0.987872828398695       0.985959430700077       0.990571644328596       0.992351460812146       1.378887958986743E-003 -6.119795947916204E-004  4.083499557828303E-003   1.00188507190454       0.990105055922271      -5.329156104432512E-003  2.624304850537644E-003  0.990561036078761     
  0.987235843907423       0.988625773407882       2.649938872391722E-003 -4.014847391680528E-003  0.991303533905205       0.999504924958278       0.998965758083414       4.087116051020490E-003  0.988730547711251      -2.572356959729660E-003 -3.748008551404624E-003   1.00279460364849        1.00086224966083       0.994453955026352       0.998591521980290        1.00066742237205     
  0.993348127416240       7.418510410573282E-003 -2.372309682438090E-003  0.999233050174000       0.998383572464429       5.720504641146843E-003  0.985274806074456       0.983293345084516       0.991509735332633       0.997628338952659       0.986528261680913      -5.784910781035097E-003  0.987933419284250       9.085069852413325E-003 -5.277003562503483E-004  6.468598722209917E-004
 -5.338071323694464E-003  0.983864864776456        1.00307316190831       0.986744343145646       0.984538794372631       0.997416137117606       0.995382380949306      -1.507186434437687E-003   1.00366376483534        1.00554483731417        1.00139689310922       0.984386546533628       0.982142649352301        1.00050242282991       0.993815937745841       0.985746665008078     
 -4.761097956996918E-003  5.706333099381662E-003  1.953981376107157E-003  7.467002804819813E-003 -7.102777830367811E-003 -1.557897564622690E-003 -1.338073866179502E-004  5.781760421240881E-004  2.091345224014850E-003  0.994335967673133        1.00224294407715       0.995237235246064       0.987872597226927       0.992158498999177       0.981486270417923       0.979328101191195     
  0.982316654485264       3.792484821125547E-003 -5.540159085277144E-003 -7.401185303906202E-003  0.977177733856291       0.989341042780809       5.704529764942953E-003  0.985592257850350       0.990545432168320       0.993298216620327        1.00001174019757       0.999241679120794       3.540690776140604E-003   1.00500149614271        1.00397109288052       0.996182543629493     
  0.998136823267333       6.244442025319863E-003  0.999631357979934        1.00193591408411       1.085613240663474E-002   1.00255306875515        1.00649570335012        1.00424185873625        1.00684369741216       0.989683987580766       0.992842092207898       0.988666349165456       1.553102384462782E-003  7.499328778243929E-003  0.989628882999338       0.985517225303066     
  0.982860053762349       8.870178813089939E-003 -5.978183369376324E-003 -3.747626208323340E-003 -2.560703351553520E-003 -3.826565106658749E-003  0.990966144060779       0.992083356526708       0.980195927237589       0.978000059679993       0.975618742815164       1.137326334991681E-002  0.991672167733454       0.995626371753423       0.994602030319516       0.996718141095058     
  5.323633671508864E-003  1.334522129104819E-002  0.987275315154993       0.986971262925907        1.00285670938274       0.988908176354934       9.408356726946151E-003  0.986946706180067      -4.003637993638658E-003 -7.923383434684912E-003  0.980990773590210       0.979753184665899       1.283785455780115E-002  0.981538259605660       0.977265859115636      -5.963910665699906E-003
  0.985032842733070      -7.472077034038404E-003  1.088897686007182E-002  0.994205079864190      -2.813988507231753E-003  3.605670134824630E-003  0.974986575294914       1.136046594339332E-002 -3.341984447329956E-004  1.192984156130247E-003  1.536172269172755E-002 -9.752760163379945E-004  7.269302054326232E-003  0.978379466756123      -6.308004588179830E-003 -9.006122880845274E-003
  9.320338142112437E-003   1.00520011589382        1.00809647449894       0.979089121802198       0.976635095232986       0.973519024040510       0.984178465702431       0.982033552158292       0.993330268793420      -1.360918196342181E-003  1.329705666309248E-002 -9.731632852607464E-003  0.976352256372011       0.973989178116758       1.494234009477367E-002  4.936428227735514E-003
  8.635776884156152E-003  1.140634115510434E-002  0.972634015125688       0.970251000711320      -8.126132411857711E-003 -1.027428305077024E-002  3.685081726729105E-004  1.306723349649194E-002  0.983374397178979       0.980550973324249       0.982444342111325       0.979819451834324       0.980535810514949       0.980089368336404        1.00852376171972        1.00525262604877     
 -5.731301059203206E-003  9.653131390089007E-004   1.00178036070176        1.00102114118530       0.984448820542908        1.00387979896719        1.00352764754151       0.971496393273853       1.713912929809074E-002  0.981492635787578       0.982884526223622       1.102527846006855E-002  0.998307168108995       0.989207629418537       0.968922922604162      -3.683533431788760E-003
 -5.146695634053383E-003  0.985208411622850       0.995658951695004       1.529886855866060E-002  0.979144467174521       2.959631932713324E-003  1.750655354336756E-002  1.532750260485402E-002  0.973149574012804        1.00749772830754       0.978253132602022        1.00097946034860       0.999909614704674       0.977990201493821       0.997194627432883       1.337151714243073E-002
 -4.140621633028918E-003 -8.144488059765954E-003 -2.457051928210734E-003 -9.930090947377630E-003 -9.623797855195309E-003  3.371273477990034E-003  0.975277264131974       0.975547231918312       0.972970958381076       1.143170252078299E-002   1.00914817340814       0.970453030389997       0.967984856532003       7.094307206313653E-003  0.971345874443821       0.965495910730597     
  0.963256596916972       8.722754598138524E-003 -7.879807402981295E-003 -1.078720422379654E-002 -1.928615969894642E-003  1.979848826179476E-002  1.759521509224086E-002  0.996072742724491        1.00270866104889      -1.176335012952781E-002  0.982577110122908       0.979399506504358      -5.189890756991220E-004 -7.011285041006492E-003  1.520976225220691E-002   1.00162206029582     
 -1.042366701359066E-002 -1.276563094609406E-002  0.977333793863834       0.976854720058918       9.380049889829451E-003  9.998343013527223E-003  0.987250644636169        1.01062031181455       0.990150881742839       1.562964485417719E-002  2.349340944002998E-003  0.969136545406207       0.966642450727553       0.964005893896744       0.960944530330385       1.760299500591621E-002
  1.931003041245206E-004  0.970267572597628       1.374560894652357E-002  1.945399234669140E-002 -1.214083576732964E-002  0.993049648702481       0.994452386884084       0.997192636517545       7.039092374764600E-003 -6.496796025559208E-003   1.00582884871829        1.00579319669328       0.967429410666340      -5.465728716378014E-003 -4.887342068239328E-003  4.570442718987886E-003
  0.970522467538693       1.259130539128070E-002  0.998834670616542        1.00052654741121       2.219445810756962E-002  2.002149709022602E-002  1.767783114720074E-002 -3.644528656762084E-003  2.187819701783980E-002  0.974705175632060       0.971887203295543      -1.454665599285816E-002  0.987626028992045      -1.035048211418372E-002   1.01025631097645       1.569414079077096E-002
  9.136338807350524E-003  2.003161749133630E-002   1.00442969233151       0.967944865183482       0.965364307571586       0.995828197630132       0.962397231672044       2.460307536387884E-002  6.037673650276445E-003  2.252146370955437E-002   1.00842488206411       6.924795269585974E-003  4.220871433193284E-003  3.908450038345997E-003  1.801165985962129E-002  3.186799032004881E-003
 -8.590596130025208E-003  0.990125718145956       0.985137500676497       0.983122103609738       0.985536700383435       0.987573871585360       0.994769012680552       1.510147442958782E-002 -1.496881417219237E-003  0.966029919723621       2.064470805273066E-002  0.969221319967707       0.990631309784886       0.989646847244869       0.987293460542364       0.985085013778126     
  0.987977708725308       0.988915570307435      -1.220265857640557E-002 -3.118663269277473E-003   1.00001536310643       0.984256159188143       0.968123054081199       0.997708977872998       0.996490132799753       2.696794134816165E-002   1.00790255708227        1.00613324323957        1.00966697180356        1.01136169899172      -1.282008884996593E-002 -1.542533488179464E-002
 -8.224064527948393E-003  2.031896642689310E-002  1.779531828161695E-002  1.503276813209524E-002 -9.827254824033179E-003  0.990448900463746        1.00877317002391       6.060945877776619E-003  0.980260367022714      -6.913706945826320E-003  0.992124498984844       0.992831026268196       0.993987119679107       1.715560732991404E-003  0.972074110240256       1.296879781735120E-002
  1.254988444566562E-002  0.980722672585794       0.970457822337454       0.959085166902641       0.962901110373382       0.960022939612116        1.00392949440907       0.964543866569973       0.967563058071109       0.973438886940811       0.971763214100855       0.975420061464050       0.976334752337235       0.974723286819354       0.973093834339488       0.957046102370480     
  0.953773528194456      -5.013994159900472E-003 -1.258615108652581E-002   1.01186354783375        1.01306872783387       0.982191888913293       0.979626989082236       6.442188775654231E-003  5.913938268565376E-004  1.094453497387178E-003  7.837283977773330E-004 -6.130169055708240E-003   1.01115146604141        1.00684704858788      -1.015929375016820E-002  2.955356418106414E-002
  2.668452965311982E-002 -1.492396502929674E-002  9.652695529184983E-003 -1.527434775923366E-002 -1.820746084949089E-002  0.991796227099293       0.989895055353179      -1.242015613887661E-002 -1.515778429078520E-002  2.674594521595939E-002   1.01076609795351       1.231180684079022E-002  0.986281899865938       0.986870911429650        1.00283667542257        1.00883211807277     
   1.01170106566146       0.987494536911495       0.961718709840450       0.958777904063563       0.955554234618845       0.952030126277338      -2.644727963011965E-003  0.977684758904577       0.984717707322284       0.984132868250207       0.982422825359351        1.00897193601724       0.977302660166792      -1.206165151477202E-002  0.983891848143383       0.966884309123626     
  0.968801197177410       0.970151433022429       0.971323418944844        1.01086359782432        1.01143882305997      -8.531764436262834E-003 -1.784958790830817E-002  0.963311594399199       0.973698342336332       0.970778832700559       6.682652318748999E-003   1.00697839889430      -4.215814857826869E-003 -7.857285417697474E-003   1.01166456375139        1.00398863177486     
   1.00186998724449        1.01265543254306       2.317852381706917E-002  2.941949439172215E-002  2.670723856710117E-002 -9.234110544113954E-003  2.252779090694965E-002  2.432005341487183E-002  2.344250926344887E-002  0.977954800206928       0.976515143059099       3.680905859593393E-003  2.877484180894660E-003  0.998884489627301       9.593514461251666E-003   1.01373949206804     
  0.960781534174891       0.987467876585646       0.993182848706196       0.995034899943929       0.957508707901352      -1.183308269283492E-002 -1.504595412929445E-002  0.964394176997057       0.980025362493403      -1.502804344608545E-002  0.981106237798132       0.984320587663789       0.990688160404295        1.00627022746415       0.972792533800327       0.968967096494165     
  0.965905515371474       0.963623189615131       0.967589752930257        1.01311053187917      -7.366626075713353E-003 -1.088885317466689E-002  1.210211344581429E-002  2.478760197124156E-002  2.071875383239639E-002  1.792625295521355E-002  3.233067786846582E-002  2.986892022031042E-002  2.841275692239522E-002   1.00482711846695       1.495199845536808E-002 -1.648294553396951E-003
 -1.636987282974888E-003   1.01394852320246        1.01625772033308      -1.514497242901540E-002  0.954398739212256       0.951280593272119       3.234285987471059E-002  3.006536360156874E-002  2.781584473710340E-002 -1.243038891032887E-002   1.01362214169593        1.01731664751482       0.975225665426382       0.969787028242828      -5.299697812535613E-003  9.394779821933754E-003
  6.795340298106822E-003 -1.823102195912975E-002   1.01387017565070        1.01496880721261       2.476436861797977E-002  2.136447823830712E-002  0.965703595781125       0.967224607005250       0.968721181589403       0.968908291378967       0.997601306293643        1.00533521438355        1.00806712930915        1.00387324709809      -1.034797216171595E-002 -1.287403579044667E-002
 -1.503989819028668E-002  0.948094265784680      -1.065940952193526E-002 -1.406420061649991E-002  0.975130270992175       0.955888506800527        1.00883175845084        1.01167152287824       0.980935224787990      -1.397100712527188E-002  0.991043793238972      -1.762285054095405E-002 -2.090338778215155E-002  3.525736619655217E-002  3.308007305931052E-002  3.094574340952074E-002
  2.897508652701560E-002  0.972188622674878       0.974988631736780        1.00079600826712       0.999553056437077       2.407187171016397E-002   1.00699202614748       5.569544083854275E-004  6.484854960108104E-003  3.632339503346881E-003  0.966505655570940       0.968886588903051       0.978143574356531       2.453448176224707E-002  1.840302765901336E-002  1.575259692624324E-002
  0.999556710722556        1.00209610611971       0.998640231605634        1.00576009009809        1.01442483136566        1.01462754275955       1.282392835546155E-002   1.00335305424817       3.525385404479848E-002  3.234477842207097E-002  0.952834182495257       0.949574468475879        1.00518472030394       0.946002761194100       3.818827616234588E-002  3.595382529504698E-002
  3.383791144105777E-002   1.00882102840304       0.960640908489295       0.957151768417261       1.889664734182774E-002  0.962273554658637       0.984759651339496       0.976784688186112      -1.665773934554316E-002  0.965409315094690       2.107607627936900E-002  1.802699611652057E-002  0.963983575628339       0.965978290479163       4.163853735028553E-004 -6.792715986152145E-003
 -1.382912847361961E-002  9.833850706061586E-003  0.963704669095838       0.961504735143855       0.967830691548213      -1.747050941696312E-002  9.099614373247676E-003  0.954353063107653       1.483512543584532E-002  2.218139949039705E-002  2.559341367534286E-002 -1.236256247804098E-002 -1.529769419684208E-002 -1.374173081781659E-002 -1.706710317202227E-002 -1.744479889898970E-002
  0.954369962819382       0.958548192662207      -2.150672988402510E-002  4.122213933347564E-002  3.881472680601518E-002  3.646949732431944E-002  3.468308620259192E-002  6.795424716415946E-003   1.01220211557670        1.01677511860292        1.01872787887666        1.00955504659627        1.01646383388630       0.971577808653656       0.974974820116934       0.960348291932992     
 -1.939599681514014E-003  3.841886876586184E-002  3.562797148270174E-002  3.257561726035271E-002  0.951498189522160       0.947724447193299       2.448561272790201E-002  0.996531586076435       4.264629114259392E-003  3.939102215470699E-003 -1.791088266455078E-002 -1.572651299416334E-002 -1.759632771034678E-002  0.962334096959402       0.958434584880282       0.977877549325075     
  6.381139117725369E-003  4.252888896513204E-003  1.311949572740408E-002  1.180504375876910E-002  0.943171274854849       0.948470294784304      -1.820613233662137E-002 -1.811209317163949E-002 -1.745750412960178E-002 -2.124449904060218E-002  0.964651885870284       4.441377809529255E-002  4.195755119198499E-002  3.902192003942141E-002  1.953112793554106E-002  0.954134216336940     
  0.957545922779598       0.959713378545479       0.950605895952723       0.956287159939732       0.952738289830171       0.949135480876626       8.425407809368105E-003 -1.226818083864593E-002  0.997564922261080       0.974126820618566       0.972915215173941      -2.024606221837423E-002 -2.020696682329673E-002  0.970586579159349       1.611553250255634E-002  1.356688953595141E-003
  0.981262325106134       0.984306047617477       1.659906944260811E-002  2.133326354745366E-002  1.811563409874739E-002  1.472937020219172E-002  4.168785157982381E-002  3.902102999828241E-002  0.978596306486892       0.973402540553782       9.977825751628821E-003  6.673890736653961E-003  0.945031636403549       0.941543816156604       8.813148414985716E-004  1.141250834000687E-002
   1.01401015033161       0.960549067278980       0.956421222181463      -1.920522949952066E-002 -2.144390513825749E-002  0.937957445775492       0.934320279751509       2.311693540930709E-002  0.947079975630363       3.613836488626260E-002  3.292943398688183E-002  2.690027471912410E-002  4.772941762402858E-002  4.533576885714734E-002  4.288490007112861E-002  4.081597430524014E-002
 -4.158163890093992E-005  0.987508592540731       0.990736864742446       0.954967760382787       3.671992528689184E-003 -2.017160225952303E-003   1.01401344067418       2.482013807753405E-002  4.500068361065241E-002  4.237633605410878E-002  3.983895915177221E-002  2.027729826213368E-002  7.600724861779587E-003  1.344709976515019E-002  0.943578021066757       0.939999534894879     
  0.942198534909766       0.987476652130823       0.993926979019752       0.994000930706094       0.945246444560374      -2.279905289594051E-003  0.958564223855717       0.951233573156646       0.947472391495677       0.988440056193310       0.992129731039030       0.938105553472180        1.01057182471765       0.990749010765496       0.934307172982763       0.956440345083114     
  0.954430506623736       0.952284655840083       0.971465575794033       0.945628162839483       0.957410724785801       1.009906072621984E-002  6.498699309590106E-003   1.01630977414046        1.01488732581426        1.01632028531327        1.01855470299075       7.627670917689203E-004 -1.467361535948622E-003  1.107293564202023E-002  4.839143025545437E-002  4.560917817471527E-002
  4.304479975087464E-002  4.155294581271795E-002  0.950085132031328       0.945970123022480       0.930302367322778       2.161134964610488E-002  1.825516867718475E-002  2.732548459163232E-002  0.989384007387717       0.978117096883903       0.981995577644512       0.985731792106860       0.974829520847440       0.974820847318464       5.115043373900194E-002  4.871864805081546E-002
  4.625659898331200E-002  4.388496135723826E-002  4.080845902745679E-002  0.953493816507027       0.955894819186317       1.472807830261278E-002  1.715039514104087E-002  0.961430921151070       0.993058318700356       0.963954864076599       0.959944018200784       0.966506844147994       0.939721631549127       0.997926801854961        1.00092540277455       0.994143224965545     
  0.942191633505172       0.938511645721554        1.00181830201840       0.948454615858670       1.380862948919614E-002   1.01749474244287       2.895849979236011E-002  3.092066039157857E-003  0.936258293796085       0.952399750766494        1.00025190119807        1.00298686406962        1.00611597231569       0.967228453716909       0.944574998420597       0.949525515723182     
  0.944979233268700       7.046511926076933E-003  5.193786140766258E-002  4.900752802133493E-002  4.579095433122786E-002 -8.918630481111649E-003 -1.202129547223996E-002 -1.543009195865495E-002 -5.185469622444114E-003 -7.545267512980848E-003 -3.216050159230109E-003  0.987344935913657       0.979268480900625       0.999266205350948       0.944289837113885       0.936314447522483     
  0.932296960763771       2.536412245253934E-002  2.931605628011956E-002  2.422037281448561E-002  0.996830204811651       0.998178205440408       0.990720364869173        1.01783487849755        1.01992228839661       0.990201261242559       0.995722569952401       0.996846952512688       0.993979085257159       0.984125543474087       0.962873173607913       1.024879122635177E-002
  6.419338393960967E-003  0.934477528812075       0.950489356713401       0.948154820550276       3.184080779407174E-002  3.075024175226933E-002  2.877785602403967E-002  0.941734085197034       0.947084756130382       0.943669549034791       5.470009036176748E-002  5.219155168876795E-002  4.959645962960015E-002  0.983071369284660       0.986626595236069       0.987126989398184     