 VARIABLES = "X" "Y" "RO" "U" "V" "P" "M"
 ZONE T="  0.000000000000000E+000 " N=        9944  E=       19548
 ZONETYPE=FETRIANGLE DATAPACKING=BLOCK
 VARLOCATION=([3-7]=CELLCENTERED)
  -19.9782054645671       -16.7460447536127       -13.5432470514743       -10.4462771124608       -7.39483127129757       -4.39431260318683       -1.43672854734527        1.47853524247441        4.40194279230921        7.38347804238703        10.4122197804982        13.5308676756442        16.7310607632789        20.0189460056259        20.0156650185539        20.0123451374732     
   20.0090067226427        20.0056742799471        20.0022854763303        19.9988742323503        19.9954939648514        19.9920871178897        19.9886881104951        19.9853470049941        19.9820070605281        19.9783478910574        16.7317203104092        13.4557822172063        10.1645634122701        6.87452312340184        3.53259687976399       0.170578499054329     
  -3.16443525887912       -6.48474521199279       -9.79114624567630       -13.0836966857758       -16.3754018560739       -20.0188035791356       -20.0155069002833       -20.0121812769038       -20.0088400757232       -20.0054989473046       -20.0021446450312       -19.9987763328347       -19.9953939522161       -19.9920253568386       -19.9886729196427       -19.9853365630757     
  -19.9819979716434       0.999783493896862       0.998267051319811       0.996754999287469       0.995253162066299       0.993706747539095       0.992099420069959       0.990426331183427       0.988691956218831       0.986896176339263       0.985036660999686       0.983099407435052       0.981092951947841       0.979001104412841       0.976836539007824       0.974595396775364     
  0.972270267333972       0.969858596917276       0.967359561013124       0.964770838422305       0.962092787110197       0.959320424472983       0.956445938579082       0.953458210207897       0.950347818828892       0.947143482245230       0.943823524707312       0.940355370542090       0.936781395316928       0.933089473484932       0.929258128552131       0.925252429376621     
  0.921103007622815       0.916804596466368       0.912343293826304       0.907710107396014       0.902898570044718       0.897902137965476       0.892708210776163       0.887304006275921       0.881681837901803       0.875833915098752       0.869761353513541       0.863456898293984       0.856912575506791       0.850118344415582       0.843065315792790       0.835744977048824     
  0.828150923188773       0.820274700467914       0.812108017387314       0.803642466589467       0.794869182208937       0.785780491789106       0.776367472007303       0.766505942351652       0.756284819778069       0.745692676509720       0.734718836677681       0.723356284740010       0.711592645619423       0.699415268866096       0.686816888688730       0.673785734883941     
  0.660307881781145       0.646375928020573       0.631976366349888       0.617092491037293       0.601713164197789       0.585817725593897       0.569393663773197       0.552425465568503       0.535502361760121       0.518542171911193       0.501512608812608       0.484413725074079       0.467245100761542       0.449356951396477       0.432065284063984       0.415368532105214     
  0.399264995060542       0.383738717586079       0.368704981074180       0.354145428522684       0.340055995409767       0.326445528074452       0.313299022547614       0.300617541978314       0.288402041122421       0.276634237197354       0.265289082424313       0.254319080087807       0.243711611382446       0.233454282593057       0.223539837096846       0.213960180069177     
  0.204703628253721       0.195758938112619       0.187121512132643       0.178775085998176       0.170709968235309       0.162909137484515       0.155365760528962       0.148073448032660       0.141026103317801       0.134217514865061       0.127640787941995       0.121290355768318       0.115161013349342       0.109247456741192       0.103545155787501       9.804974309381258E-002
  9.275704075078085E-002  8.766357509182146E-002  8.276562713251887E-002  7.805944995627165E-002  7.362331002139211E-002  6.935005681371639E-002  6.524137347500061E-002  6.129552465358883E-002  5.751265426533764E-002  5.387069303853018E-002  5.038132345172463E-002  4.704246000254229E-002  4.383634073670136E-002  4.073369427541262E-002  3.773138574107960E-002  3.480649150057009E-002
  3.195932167012955E-002  2.919492196308959E-002  2.651609356136597E-002  2.392676386930234E-002  2.143302500455591E-002  1.904249174123172E-002  1.687429124826594E-002  1.478597086756038E-002  1.279723334779346E-002  1.092700671177884E-002  9.200169473592937E-003  7.551438620588111E-003  5.943824876070727E-003  4.480471282617064E-003  3.151919051268135E-003  1.995670048042147E-003
  1.071517691794171E-003  4.479395306528294E-004  1.417293678640113E-004  7.216870104589934E-005  3.145814228110176E-004  9.133263395421185E-004  1.821378392362834E-003  2.950772875012901E-003  4.230866348805170E-003  5.607411218958931E-003  7.274090556320834E-003  9.029820337602662E-003  1.088953227687663E-002  1.276803522356370E-002  1.469438433849831E-002  1.671586529315386E-002
  1.888257946961914E-002  2.116128644106029E-002  2.356178423201470E-002  2.602504550437523E-002  2.855849723996326E-002  3.120577634714157E-002  3.400618380716128E-002  3.695728014380122E-002  4.004873417189415E-002  4.326867411813159E-002  4.660635416565336E-002  5.005000507315677E-002  5.359625631379870E-002  5.724497828443388E-002  6.098887642145505E-002  6.518667755871521E-002
  6.953031285809119E-002  7.401725445490549E-002  7.864441863646084E-002  8.334338389367763E-002  8.818309285484824E-002  9.318977394828082E-002  9.836139564156557E-002  0.103700094735084       0.109196214403905       0.114869189358444       0.120759975574929       0.126918268000969       0.133357145665282       0.140079885038196       0.147083099369324       0.154368101397566     
  0.161938071752331       0.169794113132290       0.177940256678648       0.186380058814534       0.195118041107815       0.204339363633426       0.213902535834504       0.223813366783808       0.234080986480878       0.244713730257164       0.255718796390855       0.267106603266009       0.278887968875179       0.291070466365072       0.303664969105993       0.316683854372278     
  0.330134667648012       0.344027377672999       0.358375455230465       0.373179233310652       0.388449410985082       0.404192117019191       0.420392870101128       0.437062035470608       0.454142165354706       0.471624992913127       0.489184104112107       0.506612515871666       0.523908466711419       0.541074322322685       0.558113779919997       0.574708558529972     
  0.590835050305757       0.606473553456043       0.621622995230015       0.636285458076577       0.650425017980005       0.664053069539666       0.677184886425491       0.689838362741695       0.702033776702221       0.713822470600284       0.725246231555732       0.736313063688310       0.747031215415673       0.757402828917635       0.767436267330933       0.777140304834239     
  0.786523701528118       0.795508437887347       0.804163601610061       0.812493991328408       0.820505479533140       0.828202696665799       0.835589964945926       0.842674517983642       0.849518957172953       0.856153191623634       0.862580311689601       0.868804104570703       0.874828440992653       0.880657314283839       0.886294016728651       0.891741660744491     
  0.897003696903132       0.902084479499608       0.906991745114034       0.911730041573448       0.916303873313010       0.920523857170214       0.924627930664523       0.928614212295365       0.932485590547072       0.936227113755035       0.939835776063614       0.943317944606085       0.946665861285991       0.949883145859329       0.952985158024185       0.955947790884305     
  0.958777708987217       0.961531375780307       0.964205739452120       0.966798963571298       0.969309798138769       0.971737668162163       0.974083754717570       0.976349107138753       0.978537048124045       0.980651490087965       0.982644206714140       0.984582449612969       0.986451536115876       0.988256222968031       0.990000483614135       0.991685618731471     
  0.993307179707190       0.994866441731852       0.996365924152283       0.997861571980621      -1.146544623979525E-003 -9.310054175037899E-004 -1.108785929581377E-003  0.996031231279001       0.997472128355220       0.996025554994851       0.997251772101368      -2.576286808491062E-003 -4.494265085541666E-004  0.995687299069405       0.996466102903260      -2.104130132061486E-003
  0.994642202623053      -2.451326283884052E-003  0.994140581595119       0.992481418368499      -7.719425628207829E-004  0.992924427893136       0.993906649316272      -2.514457826287394E-003 -4.043203609233943E-003  0.994992834612529       0.995152577738794       0.998891930063834      -1.477668678528838E-003  3.210238163228178E-004  0.991177023791136       0.989409667872747     
  0.987638420199726       0.992021145987171       0.998198524581142       0.993475511936971       0.991263249612412      -1.305917320381083E-005 -2.195292766461079E-003 -4.148523256951428E-003  0.992909591255391       0.997445776363745        1.00054169703875       0.998183684968696        1.00122503910556      -3.403910077718755E-003  1.365663161432557E-003  0.996571616321125     
  0.996990791171279       0.999544987247831       0.989532261504831       0.990193980135763       0.988345506391646       0.986434654138468       0.990993765060887       0.992772066263484       1.064013503936271E-003 -9.066519874584243E-004  3.684155072221262E-003   1.00232929741931       0.990518154186482      -5.491032577910353E-003  2.650632177586588E-003  0.991030204645786     
  0.987645471282865       0.989037602616711       2.292522707483475E-003 -4.226791807973016E-003  0.991771879185911       0.999960995220335       0.999402609109512       4.142469226358011E-003  0.989201782751972      -2.624171278172718E-003 -3.864682912221449E-003   1.00324124126009        1.00130209948111       0.994917993463551       0.999049711580678        1.00112291219657     
  0.993813921813796       7.524777641978940E-003 -2.655553763446828E-003  0.999674208013387       0.998814087304931       5.803093627672128E-003  0.985677335593627       0.983688654479992       0.991923090518564       0.998051685198961       0.986933135103041      -5.972855444673726E-003  0.988340059193850       9.209678787436781E-003 -5.562010886847432E-004  6.502720709334678E-004
 -5.445011376347508E-003  0.984343161158966        1.00351307967283       0.987218103535608       0.985015626137376       0.997877105132541       0.995845695902203      -1.527083030781782E-003   1.00410692689018        1.00598459740683        1.00184910893950       0.984784330466320       0.982533034408922        1.00093637912852       0.994235781935467       0.986146829138455     
 -4.835463104522073E-003  5.799323849043058E-003  1.578003734976107E-003  7.579773298390418E-003 -7.199401159086137E-003 -1.869702988316961E-003 -1.226468658010531E-004  2.441956531641691E-004  2.125478453498257E-003  0.994800867528566        1.00267911098171       0.995655605635169       0.988344701556141       0.992625885798688       0.981968145805709       0.979812599472032     
  0.982796911054716       3.856516025131624E-003 -5.679166519821277E-003 -7.566652099565411E-003  0.977664911525584       0.989748467248125       5.263246985251921E-003  0.986068441632414       0.990952813489446       0.993764823132002        1.00043908825443       0.999662143877817       3.122321997712100E-003   1.00544594568722        1.00441974816019       0.996645551683954     
  0.998597991498631       6.351738392483913E-003   1.00008929327563        1.00239082930815       1.100047063253237E-002   1.00298377386473        1.00694174007702        1.00467709573174        1.00727736746838       0.990154149858481       0.993254901242841       0.989070046579746       1.594975832180949E-003  7.015822671402551E-003  0.990099057072705       0.985992474935110     
  0.983339135657527       8.998978052906394E-003 -6.205516647030227E-003 -4.038426744923300E-003 -2.572559992269776E-003 -3.869093422266678E-003  0.991435302813009       0.992551713807145       0.980678571933560       0.978485199538582       0.976106774592733       1.081085448042382E-002  0.992078662877340       0.996090521448015       0.995067834232665       0.997134362274380     
  4.862679150577226E-003  1.274879964116433E-002  0.987677629648462       0.987369861912122        1.00330925508725       0.989379393513421       8.884021697915041E-003  0.987420079686689      -4.261191450566260E-003 -8.128100216206679E-003  0.981472157339889       0.980134859016479       1.300192369278714E-002  0.981927903946611       0.977637592362077      -6.229131669595600E-003
  0.985427975004371      -7.601942826894200E-003  1.103917197540461E-002  0.994616497951737      -3.144000025642482E-003  3.678792790186954E-003  0.975349866915355       1.078176992107945E-002 -6.869045617663976E-004  7.977769339514527E-004  1.473246443456127E-002 -9.570658973025932E-004  6.766200493692756E-003  0.978753275187653      -6.371958661381960E-003 -9.090742785114002E-003
  8.776886531289281E-003   1.00565038194812        1.00854379970505       0.979572184447046       0.977120771483253       0.974009039028664       0.984655398482216       0.982513056240634       0.993797812458023      -1.732956636479359E-003  1.268981157045425E-002 -9.886410812187907E-003  0.976719333662437       0.974347327335918       1.512453673578595E-002  4.455434234932535E-003
  8.770644184921683E-003  1.081517789662230E-002  0.972988052613107       0.970595533216691      -8.367146685976249E-003 -1.049367073172311E-002 -4.597368584820504E-005  1.323677226876764E-002  0.983766698348627       0.980931879485681       0.982829307620399       0.980194280967733       0.981017076287071       0.980570693784394        1.00896077961086        1.00568243346349     
 -6.035725446335920E-003  1.014495424402573E-003   1.00220439485645        1.00143846925151       0.984836615363843        1.00433262043173        1.00398210087563       0.971845078289835       1.733806197218661E-002  0.981870642341168       0.983264736878924       1.118210713650067E-002  0.998720793613708       0.989609629246941       0.969262386654136      -3.687936873911504E-003
 -5.180233584779444E-003  0.985683726666807       0.996068287023475       1.548518279665112E-002  0.979515270657326       2.521578652415676E-003  1.684253959322069E-002  1.468749280830873E-002  0.973641017483347        1.00793957915968       0.978736419063810        1.00143685621749        1.00036962935238       0.978360946342053       0.997657761192652       1.354647011368692E-002
 -4.490105489234959E-003 -8.420420758192715E-003 -2.847638842306578E-003 -1.011543233090985E-002 -9.744585758531319E-003  3.453889650552891E-003  0.975766581574109       0.975909405660044       0.973323651897884       1.159573865822765E-002   1.00959157079460       0.970947499736855       0.968481653338770       6.571158641027567E-003  0.971838878383746       0.965995031601613     
  0.963757567049992       8.864484461056156E-003 -7.933301603081701E-003 -1.085907275214931E-002 -1.904061674336585E-003  1.909883148277050E-002  1.691974514148498E-002  0.996537588682783        1.00316561743575      -1.193563732561823E-002  0.983055393088074       0.979881255649431      -9.524129687763349E-004 -7.339536548805131E-003  1.455779823219920E-002   1.00208135399110     
 -1.067784371831854E-002 -1.299937841050440E-002  0.977700340082765       0.977215549059350       8.816619317678727E-003  9.410218301293778E-003  0.987644435454617        1.01106465270994       0.990549566135372       1.581886401030996E-002  1.891472060305210E-003  0.969631377690668       0.967139419959963       0.964505148319929       0.961446829308288       1.780512490420519E-002
  2.506128325658296E-004  0.970610508036934       1.392478573220820E-002  1.966922712967394E-002 -1.228757622657078E-002  0.993454284638648       0.994855145697569       0.997599596022647       6.496033774289184E-003 -6.521811440732263E-003   1.00628052434950        1.00624691671095       0.967761595424582      -5.833310655835829E-003 -4.884391281275685E-003  4.069244188832752E-003
  0.971015477934877       1.276448033556220E-002  0.999296751815262        1.00098782189373       2.145976471877587E-002  1.931057440297461E-002  1.699073008553898E-002 -4.052539420275373E-003  2.210938791714684E-002  0.975061770375832       0.972233948684840      -1.472205268625456E-002  0.988015145844828      -1.063590613967380E-002   1.01069576606270       1.588545820456262E-002
  9.284603430286760E-003  2.025007767034191E-002   1.00488607800821       0.968439848634623       0.965861110680845       0.996228394225920       0.962896713086629       2.383656457455365E-002  6.152649219854700E-003  2.177661774030248E-002   1.00887487901437       6.360986507798122E-003  3.698505510050681E-003  3.364160742939869E-003  1.821682183056447E-002  3.278469318805757E-003
 -8.938672675359581E-003  0.990518895271326       0.985522372386006       0.983500168333163       0.985919559236272       0.987958633428058       0.995235618531219       1.443756694522163E-002 -1.949981434098344E-003  0.966358357031448       2.086636753235920E-002  0.969714544673976       0.991101446107271       0.990117594976177       0.987766447652626       0.985560381587112     
  0.988450288654891       0.989387727068490      -1.231022269382246E-002 -3.087731992963610E-003   1.00042613935552       0.984631224495415       0.968460239333413       0.998172782997676       0.996955653945521       2.617231999019196E-002   1.00833135076753        1.00655852266919        1.01009927311060        1.01179692334976      -1.308724684851815E-002 -1.567459985588385E-002
 -8.524828447615356E-003  1.959728654323284E-002  1.709720164256383E-002  1.435774021194864E-002 -1.013978438580814E-002  0.990836509996411        1.00922505320104       6.184726358564564E-003  0.980631812911917      -7.298508086840651E-003  0.992523838723193       0.993227436860325       0.994378012098433       1.237103627781796E-003  0.972564672533804       1.235215834144728E-002
  1.192076069711355E-002  0.981089228525056       0.970948940292981       0.959587943328165       0.963215072063273       0.960325292153065        1.00435573968200       0.964863476379375       0.968056608566651       0.973926934651759       0.972252338851096       0.975906226831270       0.976819486040448       0.975209478309939       0.973581423882527       0.957336173104613     
  0.954049942254103      -5.438456228387600E-003 -1.288220663580272E-002   1.01230511422522        1.01351224674493       0.982669967713630       0.980107949655399       6.574183951619661E-003  6.631303359075739E-004  5.923827300353206E-004  2.576659979398337E-004 -6.119706360694859E-003   1.01160036671460        1.00730124527221      -1.052588058394221E-002  2.872078548290627E-002
  2.588719167417589E-002 -1.505852409371604E-002  9.047631950179807E-003 -1.555593756690819E-002 -1.847525980192114E-002  0.992265677898296       0.990366620371027      -1.261867972729450E-002 -1.537104223022209E-002  2.700306687149617E-002   1.01119378585582       1.167084993389722E-002  0.986756521813367       0.987345114012201        1.00325074315234        1.00925629952807     
   1.01212419066903       0.987968267988652       0.962027465091646       0.959074798634639       0.955838096689409       0.952299455694022      -3.123914124380445E-003  0.978043106926036       0.985193552163649       0.984609124276030       0.982900445743669        1.00942509485411       0.977786315784074      -1.239344066432333E-002  0.984368431981266       0.967379226524262     
  0.969292809257022       0.970641401232649       0.971812032960431        1.01131010839597        1.01188933377191      -8.932200684216178E-003 -1.800974922018752E-002  0.963625339157546       0.974048619892912       0.971119420010738       6.099246225704911E-003   1.00739883463936      -4.179392424051789E-003 -7.874160284157494E-003   1.01211646519202        1.00440940319236     
   1.00227778950455        1.01308662446543       2.242331668805974E-002  2.969195742607640E-002  2.696157897456659E-002 -9.243270753368886E-003  2.276174544607245E-002  2.456519954631372E-002  2.367943980274524E-002  0.978309893993547       0.976999513007974       3.116304391533337E-003  2.981388535051558E-003  0.999288634484503       9.746702937371666E-003   1.01418554557382     
  0.961085324503369       0.987845593965759       0.993651468968674       0.995502450846480       0.958014172243498      -1.221410631897132E-002 -1.515522835662527E-002  0.964890532170116       0.980505687455586      -1.533458999674391E-002  0.981467302166418       0.984686715267932       0.991068217295307        1.00672596641572       0.973137518061645       0.969303313854371     
  0.966229274864573       0.963935200316587       0.967918559448406        1.01354797436078      -7.348710169951751E-003 -1.092418413466205E-002  1.145010770817325E-002  2.401741508669808E-002  1.998629573514774E-002  1.721664026875269E-002  3.146462350824370E-002  2.902745136988881E-002  2.758414509427953E-002   1.00523824781143       1.426519914685055E-002 -1.595986267096751E-003
 -1.571935631822519E-003   1.01438253696659        1.01669299968198      -1.547842221107716E-002  0.954906500962906       0.951790518609440       3.262952762500141E-002  3.033875852958859E-002  2.807566296238158E-002 -1.245742608177545E-002   1.01407038387159        1.01776173157554       0.975578058870702       0.970120812983308      -5.259251235370756E-003  8.776060284339580E-003
  6.932853812036717E-003 -1.845859224557204E-002   1.01429644267436        1.01539058705158       2.500939834431621E-002  2.158910197447466E-002  0.966197642252094       0.967716668260463       0.969211794395046       0.969398270900565       0.997998025248268        1.00575154496052        1.00848229343053        1.00427789006214      -1.076352741749678E-002 -1.322980212572226E-002
 -1.540223474917927E-002  0.948606431285793      -1.066234524956789E-002 -1.408306212976101E-002  0.975479657362047       0.956394022730723        1.00928615545958        1.01212447631237       0.981414800596796      -1.402302718862562E-002  0.991514807470785      -1.774593824629259E-002 -2.104939395074509E-002  3.555621060238007E-002  3.336658928978289E-002  3.122078606633896E-002
  2.923960353223107E-002  0.972527513272249       0.975333252870012        1.00119716930542       0.999946703576469       2.330196479693029E-002   1.00739910282354       1.176294343108446E-005  5.884768208319611E-003  3.048320664873470E-003  0.966825967817524       0.969212708683276       0.978494282919870       2.477563775903304E-002  1.861116928898560E-002  1.594588521158635E-002
   1.00001955875680        1.00255696591352       0.999104816889139        1.00616222173243        1.01487404568452        1.01507825652732       1.299944386915112E-002   1.00381191128890       3.435275993965311E-002  3.147480532352357E-002  0.953341752849255       0.950084297798908        1.00564338716112       0.946515043241260       3.849828459867626E-002  3.625130104787527E-002
  3.412428715269408E-002   1.00922363223576       0.961140968044655       0.957655142138037       1.910748523027260E-002  0.962770734538989       0.985235862273129       0.977268602783036      -1.675427749239877E-002  0.965722541338391       2.032998685789330E-002  1.730388760266922E-002  0.964478279007936       0.966470815495650      -1.472416641551676E-004 -7.231480262792605E-003
 -1.422829626948947E-002  9.991738624062281E-003  0.964013877855436       0.961804881520341       0.968148271756428      -1.766519049721069E-002  8.470007534880076E-003  0.954858762224308       1.413445541413065E-002  2.240959369889240E-002  2.583999926465676E-002 -1.242385047008370E-002 -1.537309176218707E-002 -1.382920165404450E-002 -1.713383052672456E-002 -1.775618517413583E-002
  0.954874215441485       0.959048736681906      -2.175466000874242E-002  4.154345964558336E-002  3.912235668476538E-002  3.676602905201996E-002  3.496965544186194E-002  6.937722468218701E-003   1.01261926078107        1.01719961778026        1.01914854117810        1.00997556225913        1.01687950490271       0.971909192444686       0.975313309858028       0.960846094096114     
 -2.452644263475154E-003  3.748164172828252E-002  3.472105493924175E-002  3.170114721255037E-002  0.952005482810440       0.948234016001460       2.369767354766680E-002  0.996921423427438       4.386875856139516E-003  4.063663513652823E-003 -1.799483909354620E-002 -1.576941274466686E-002 -1.763069140410535E-002  0.962829529307384       0.958933048658949       0.978360915870481     
  5.768604653846990E-003  3.644426425157977E-003  1.329819433499732E-002  1.114139328517438E-002  0.943683905759304       0.948722947260610      -1.854127709119433E-002 -1.849079118124762E-002 -1.775183458764351E-002 -2.153783822207280E-002  0.965145101878858       4.474635304272151E-002  4.227741557908563E-002  3.932728057490975E-002  1.974491657435756E-002  0.954411268412944     
  0.957836760077200       0.960010736359775       0.950867727894299       0.956571394117816       0.953007983926817       0.949390009941074       7.785722068789559E-003 -1.226848691866054E-002  0.997948483454686       0.974613368663825       0.973402068376064      -2.032722570047642E-002 -2.031412728363815E-002  0.970908106978366       1.631089588318108E-002  1.462657655737717E-003
  0.981617571512648       0.984665313752384       1.679737187201939E-002  2.057189177668770E-002  1.737729633114044E-002  1.401251473791587E-002  4.071534775092477E-002  3.807642731148114E-002  0.978943814756396       0.973727417250676       1.014018286883428E-002  6.820720352131064E-003  0.945269589066126       0.941766972446794       9.918740721862381E-004  1.073423823297183E-002
   1.01446271681607       0.961045252150712       0.956920330398624      -1.926287675304730E-002 -2.149184381660746E-002  0.938164996761029       0.934511712322383       2.334920939594664E-002  0.947326465675039       3.522489627897529E-002  3.205058308713182E-002  2.715177153158480E-002  4.807228277299331E-002  4.566642218810216E-002  4.320388854866587E-002  4.112533857149710E-002
 -6.205481248939420E-004  0.987878363790156       0.991109313598655       0.955244755422537       3.799787808368200E-003 -1.933325950985928E-003   1.01442468576046       2.401990709639248E-002  4.399524647056115E-002  4.139722632841658E-002  3.888421006983030E-002  2.049441236631416E-002  6.945667677747807E-003  1.362961721471212E-002  0.943810241746900       0.940217040612172     
  0.942713708453018       0.987839173559468       0.994309207481131       0.994375154367677       0.945760359490212      -2.183494408385357E-003  0.958855802241297       0.951495810403624       0.947719532156228       0.988913482426896       0.992600417502062       0.938623048019232        1.01098133041646       0.991114231855666       0.934826572762173       0.956941317717560     
  0.954931966779116       0.952786558945573       0.971952928144504       0.945868350405891       0.957694317406920       1.026617060111833E-002  6.650866267556948E-003   1.01673944871738        1.01532709082590        1.01676238968586        1.01899227637654       8.788867700334421E-004 -1.357073493999055E-003  1.037730459005503E-002  4.735345933130084E-002  4.460134050260633E-002
  4.205956197316973E-002  4.058206504730271E-002  0.950591925580901       0.946479089104709       0.930823752887415       2.083536485329999E-002  1.750040251311676E-002  2.650320278826785E-002  0.989857208904850       0.978599227009633       0.982474221228391       0.986207563133199       0.975314539408307       0.975305186898271       5.150309434288792E-002  4.905895667216346E-002
  4.658559406120812E-002  4.420377216450277E-002  4.111206359761112E-002  0.953763043040489       0.956170120114202       1.399354847988513E-002  1.735223402884434E-002  0.961733216403810       0.993528962766366       0.964259076492444       0.960233516120876       0.966814736900700       0.940237196271959       0.998392687107958        1.00138939665011       0.994510842625027     
  0.942419050241298       0.938723530846564        1.00220805266998       0.948960917261965       1.399540100592627E-002   1.01790351053396       2.811731417905778E-002  3.223418834750043E-003  0.936459776895802       0.952903758538666        1.00063147444724        1.00338543977829        1.00651183758150       0.967719204730682       0.945083184475881       0.949780743440325     
  0.945217208002245       6.372914832207738E-003  5.086594510237332E-002  4.796719341981859E-002  4.478147688946479E-002 -9.365830913077633E-003 -1.244840162595751E-002 -1.585253048889230E-002 -5.667153832707353E-003 -8.028947982415118E-003 -3.739774199593299E-003  0.987700130735859       0.979749165367506       0.999732048808650       0.944525028358622       0.936831464309928     
  0.932815874532791       2.455114358203116E-002  2.846386187974360E-002  2.445636584781058E-002  0.997205032297860       0.998547830943757       0.991078388327985        1.01828216611973        1.02034683909751       0.990674322271702       0.996190515261396       0.997315157800337       0.994449806060861       0.984478006084031       0.963367095388728       1.042088885282787E-002
  6.576984373228438E-003  0.934672333346528       0.950993516684538       0.948659291587833       3.211723243458530E-002  3.101996898698962E-002  2.903525682806370E-002  0.942245390018283       0.947590783318546       0.944176936171507       5.506228937874194E-002  5.254144686709245E-002  4.993416686039003E-002  0.983549121126685       0.987102032460743       0.987602178350373     