 VARIABLES = "X" "Y" "RO" "U" "V" "P" "M"
 ZONE T="  0.000000000000000E+000 " N=        9944  E=       19548
 ZONETYPE=FETRIANGLE DATAPACKING=BLOCK
 VARLOCATION=([3-7]=CELLCENTERED)
  -19.9782054645671       -16.7460447536127       -13.5432470514743       -10.4462771124608       -7.39483127129757       -4.39431260318683       -1.43672854734527        1.47853524247441        4.40194279230921        7.38347804238703        10.4122197804982        13.5308676756442        16.7310607632789        20.0189460056259        20.0156650185539        20.0123451374732     
   20.0090067226427        20.0056742799471        20.0022854763303        19.9988742323503        19.9954939648514        19.9920871178897        19.9886881104951        19.9853470049941        19.9820070605281        19.9783478910574        16.7317203104092        13.4557822172063        10.1645634122701        6.87452312340184        3.53259687976399       0.170578499054329     
  -3.16443525887912       -6.48474521199279       -9.79114624567630       -13.0836966857758       -16.3754018560739       -20.0188035791356       -20.0155069002833       -20.0121812769038       -20.0088400757232       -20.0054989473046       -20.0021446450312       -19.9987763328347       -19.9953939522161       -19.9920253568386       -19.9886729196427       -19.9853365630757     
  -19.9819979716434       0.999537255341520       0.998018935042906       0.996505064119086       0.995001472217343       0.993453304020592       0.991844209737798       0.990169340920498       0.988433182896921       0.986635621503752       0.984774328566916       0.982835293214506       0.980827064841855       0.978733444280452       0.976567121462577       0.974324238347746     
  0.971997382917620       0.969584003576240       0.967083278861172       0.964492889174567       0.961813195361711       0.959039214023878       0.956163130908779       0.953173823077254       0.950061867739824       0.946855998660775       0.943534530664834       0.940064875861592       0.936489430320195       0.932796064783197       0.928963296938045       0.924956187294401     
  0.920805383613228       0.916505622659006       0.912043004814256       0.907408543703651       0.902595780683516       0.897598182265341       0.892403159095572       0.886997942484987       0.881374862703198       0.875526147978900       0.869452935344209       0.863147991214803       0.856603363873351       0.849809035415661       0.842756139784597       0.835436187202605     
  0.827842794272062       0.819967527201142       0.811802112116206       0.803338156336995       0.794566805190328       0.785480392942586       0.776069998484255       0.766211474736623       0.755993704116540       0.745405244327992       0.734435397572990       0.723077117307670       0.711317991342191       0.699145323902834       0.686551793208487       0.673525566188790     
  0.660052646573329       0.646125551834171       0.631730688239528       0.616851257662041       0.601476022359211       0.585584220474953       0.569163234326080       0.552197445380019       0.535275939945306       0.518316533572333       0.501286934644101       0.484187201153811       0.467016931737100       0.449126268273051       0.431831449219093       0.415131041341025     
  0.399023470384316       0.383492893722908       0.368454672485822       0.353890534908622       0.339796496604308       0.326181479406680       0.313030537969927       0.300344790655276       0.288125238984724       0.276353632682280       0.265004947636445       0.254031698981227       0.243421286610462       0.233161331598105       0.223244589831076       0.213662975389650     
  0.204404810383158       0.195458854576658       0.186820512590082       0.178473519276131       0.170408182117598       0.162607478052020       0.155064572015919       0.147773071933146       0.140726877591788       0.133919773329023       0.127344860016556       0.120996565844375       0.114869680300044       0.108958893656914       0.103259669343821       9.776763312253225E-002
  9.247859979416488E-002  8.738908751298637E-002  8.249536882041582E-002  7.779368793851935E-002  7.336221171914421E-002  6.909387913093031E-002  6.499036180028286E-002  6.104991553358202E-002  5.727267166502005E-002  5.363658373311728E-002  5.015330578474546E-002  4.682074285966503E-002  4.362115596169151E-002  4.052533251503943E-002  3.753015176013183E-002  3.461276034652762E-002
  3.177349319334775E-002  2.901741067308893E-002  2.634733711225942E-002  2.376722268951301E-002  2.128317694429434E-002  1.890282642863385E-002  1.674476129976353E-002  1.466717883312247E-002  1.268975501315937E-002  1.083137335646028E-002  9.116790849271226E-003  7.481300594382104E-003  5.888564371483955E-003  4.441176709774484E-003  3.130220699070456E-003  1.993433894001769E-003
  1.090514437134425E-003  4.888977182317094E-004  2.030292030979580E-004  1.542482194934747E-004  4.253403310130961E-004  1.054507926766811E-003  1.993264129470479E-003  3.152196833189853E-003  4.460245282466904E-003  5.863036028849146E-003  7.558057672437089E-003  9.340802415462974E-003  1.122679612700705E-002  1.312996584064897E-002  1.508003676786570E-002  1.712499779308000E-002
  1.931552773741573E-002  2.161799521764820E-002  2.404229304200279E-002  2.652883107973744E-002  2.908515483216980E-002  3.175530281786919E-002  3.457887329282813E-002  3.755334664667367E-002  4.066825970809379E-002  4.391161341846506E-002  4.727255797786424E-002  5.073922601257258E-002  5.430821385866524E-002  5.797938073415970E-002  6.174537859570784E-002  6.596691426365513E-002
  7.033402420842093E-002  7.484413341251768E-002  7.949411136502393E-002  8.421519274946179E-002  8.907663744243419E-002  9.410475361721948E-002  9.929745659323588E-002  0.104656848830458       0.110173196581769       0.115865965080913       0.121776196555471       0.127953670055583       0.134411410595159       0.141152607942208       0.148173772869145       0.155476132014911     
  0.163062786080969       0.170934754749990       0.179095993771374       0.187549983874487       0.196301173153212       0.205534876108738       0.215109279799863       0.225030106280439       0.235306401139942       0.245946412800844       0.256957250697898       0.268349244631200       0.280133121399214       0.292316360120838       0.304909738656646       0.317925535322683     
  0.331371194934310       0.345256582923286       0.359595061479315       0.374386861818733       0.389642573261772       0.405368216925609       0.421549229883010       0.438195871398770       0.455250690859106       0.472705370324405       0.490234025640343       0.507630136864227       0.524892083939454       0.542022362378752       0.559024793248889       0.575581961574221     
  0.591670526006015       0.607271035943112       0.622382614422198       0.637007517534987       0.651110080647069       0.664701822864956       0.677798114545068       0.690416922469150       0.702578575044629       0.714334363037699       0.725726033771271       0.736761635095556       0.747449449439809       0.757791661810232       0.767796652544904       0.777473204319771     
  0.786830078807091       0.795789495774553       0.804420360274222       0.812727464693066       0.820716667411646       0.828392584046062       0.835759519327114       0.842824678614148       0.849650482773104       0.856266750554624       0.862676554360820       0.868883660812488       0.874891919535450       0.880705302537706       0.886327083104070       0.891760355876628     
  0.897008553762037       0.902076012218035       0.906970441481587       0.911696372798839       0.916258295483347       0.920467315675134       0.924560750314497       0.928536723175234       0.932398116389375       0.936130018404909       0.939729432791993       0.943202712247583       0.946542120273014       0.949751268889910       0.952845480378759       0.955800709146230     
  0.958623602658710       0.961370484699314       0.964038312376155       0.966625254511921       0.969130064241354       0.971552167386145       0.973892741042616       0.976152830359022       0.978335748159159       0.980445395445202       0.982433650372578       0.984367609403259       0.986232619580309       0.988033423741608       0.989773983312746       0.991455592696199     
  0.993073808695911       0.994629899651164       0.996126375585388       0.997619067531572      -1.072259939956869E-003 -8.768375403295779E-004 -1.011698903987146E-003  0.995780105096150       0.997222318155918       0.995773889291376       0.997012968962543      -2.489083833734542E-003 -4.155742087127006E-004  0.995451012135897       0.996230416321170      -2.056084776074109E-003
  0.994389603900447      -2.383587653898494E-003  0.993906827598378       0.992250890670714      -6.464184650890866E-004  0.992669934609400       0.993652761548192      -2.404488154754956E-003 -3.962265046403737E-003  0.994758875171823       0.994920761212455       0.998651088423010      -1.449793389906490E-003  3.341458843437976E-004  0.990920764630760       0.989151693035183     
  0.987378738330244       0.991765520666895       0.997960688286443       0.993244340842446       0.991036464665749       1.448658905497706E-004 -2.049806378281367E-003 -4.050606735586488E-003  0.992654509987582       0.997211213904303        1.00029994342390       0.997933983087200        1.00098077556676      -3.361637596174545E-003  1.358640447592700E-003  0.996341389241642     
  0.996739284435446       0.999297496620672       0.989307596235419       0.989936767614422       0.988086710808084       0.986174218865974       0.990765952169588       0.992545068968883       1.250276748909889E-003 -7.327560437811026E-004  3.925279231509123E-003   1.00208817019613       0.990295590945798      -5.400433083210089E-003  2.624643256967019E-003  0.990773595059168     
  0.987425022607535       0.988815825299335       2.506314072140280E-003 -4.104890189705035E-003  0.991515727678088       0.999712620100934       0.999165938875783       4.098723142842756E-003  0.988943848209538      -2.601907010271869E-003 -3.802465529189656E-003   1.00299859929058        1.00106361008589       0.994664631758756       0.998799962821349        1.00087478865837     
  0.993559374600460       7.449869384379560E-003 -2.488516032130271E-003  0.999435008636430       0.998581140020435       5.742679525270370E-003  0.985461068054550       0.983476637547715       0.991700337786366       0.997822950188818       0.986715456244499      -5.865761496245596E-003  0.988121305278467       9.123541290582248E-003 -5.484652107954482E-004  6.384549595969610E-004
 -5.388487834950694E-003  0.984080738939192        1.00327446777359       0.986958538594089       0.984754060790332       0.997625554510842       0.995592695801180      -1.524420828282423E-003   1.00386635478431        1.00574598935943        1.00160307752651       0.984570827771039       0.982323889168236        1.00070135945450       0.994009186998674       0.985931890967770     
 -4.799054306672983E-003  5.732607514282917E-003  1.804375837124138E-003  7.500923467569073E-003 -7.148934034936477E-003 -1.684363219317244E-003 -1.390456961850123E-004  4.433398175042657E-004  2.094839652304732E-003  0.994546806709457        1.00244274254786       0.995429833666346       0.988086137557443       0.992370257368337       0.981703355530791       0.979546066729155     
  0.982533099634422       3.807555181059636E-003 -5.602781065088908E-003 -7.473388128478043E-003  0.977396591082009       0.989529217646219       5.531887480091981E-003  0.985807440782957       0.990733560040327       0.993509605258988        1.00020795666795       0.999435059855319       3.376373231516433E-003   1.00520452469545        1.00417576682859       0.996392678208413     
  0.998346207409998       6.276324587942883E-003  0.999839593270758        1.00214294624433       1.090225371872632E-002   1.00275060931981        1.00669925397179        1.00444122098999        1.00704234005292       0.989896762968355       0.993032431211053       0.988852973506866       1.559729112063566E-003  7.312283628858787E-003  0.989841753453136       0.985731853057305     
  0.983076000148598       8.910321254128564E-003 -6.073383574942375E-003 -3.866170664032689E-003 -2.574627556561633E-003 -3.852295581948336E-003  0.991178459794399       0.992295299263744       0.980413186194276       0.978218159276945       0.975837808556975       1.115958262870141E-002  0.991859893548434       0.995836859523153       0.994813033966796       0.996909812548780     
  5.144684292560436E-003  1.312015770265037E-002  0.987461392470960       0.987155783483988        1.00306286814070       0.989121226904250       9.207487653951534E-003  0.987160570621270      -4.110247075486482E-003 -8.009944152084532E-003  0.981207543975740       0.979930839916140       1.289162458657681E-002  0.981719220123971       0.977439402215834      -6.072784048543103E-003
  0.985215964159964      -7.530848828486799E-003  1.093741655446908E-002  0.994394805173167      -2.946456209378254E-003  3.624364787726782E-003  0.975156621701372       1.114160138402358E-002 -4.751571599616818E-004  1.037152987721577E-003  1.512571701217641E-002 -9.776125206693944E-004  7.075980682674296E-003  0.978553843458598      -6.341691056697739E-003 -9.047386189667415E-003
  9.113344023197079E-003   1.00540531813162        1.00830041983367       0.979306447741915       0.976853278030041       0.973738608401689       0.984393577933592       0.982249558989761       0.993541820256826      -1.508188674397065E-003  1.306863010458638E-002 -9.799354683367772E-003  0.976523844478487       0.974157064583200       1.500313183115699E-002  4.751015273252924E-003
  8.678346025045353E-003  1.118347405637530E-002  0.972800222568266       0.970413260894614      -8.225852489702954E-003 -1.036579069845088E-002  2.064274271652319E-004  1.312316505558734E-002  0.983556387952073       0.980728265442810       0.982623269374476       0.979994190808841       0.980752469217040       0.980305955378171        1.00872369706393        1.00544973386197     
 -5.854073965871664E-003  9.749194773520375E-004   1.00197516396609        1.00121318752840       0.984628875913995        1.00408598689616        1.00373440971605       0.971660352785624       1.720639827115317E-002  0.981668657308222       0.983061430600600       1.107634296612886E-002  0.998497729773362       0.989393529837103       0.969083054342695      -3.694374142681396E-003
 -5.168727175636944E-003  0.985422885776699       0.995847779952523       1.536129136262646E-002  0.979317517552575       2.788963751303405E-003  1.725901047731472E-002  1.508815595128485E-002  0.973369768676493        1.00769961736156       0.978470434098507        1.00118737503012        1.00011842835191       0.978163283015991       0.997404631762874       1.342958762621955E-002
 -4.279462915841026E-003 -8.256712491774032E-003 -2.610355339611361E-003 -1.000914316835251E-002 -9.678764245659064E-003  3.393776564968213E-003  0.975496827457892       0.975716759906786       0.973136553785079       1.148560489194255E-002   1.00935058774106       0.970674166497024       0.968206705101542       6.894513605624786E-003  0.971566465413268       0.965718458519662     
  0.963479697476299       8.768057272730952E-003 -7.909217262032062E-003 -1.082331287571015E-002 -1.928310106038691E-003  1.953915062064013E-002  1.734409450488739E-002  0.996283289885356        1.00291628942118      -1.183732637161136E-002  0.982792601308598       0.979616098497293      -6.872143216147393E-004 -7.142130442733942E-003  1.496666903901214E-002   1.00183049135982     
 -1.052774958862135E-002 -1.286200686979976E-002  0.977505104605317       0.977023627580783       9.166576552126509E-003  9.776796579195808E-003  0.987433147596882        1.01082303152596       0.990335369496775       1.569322734877952E-002  2.172256571751637E-003  0.969357693475478       0.966864246488906       0.964228385310293       0.961167941206359       1.767153222438490E-002
  2.061262075462487E-004  0.970429116970901       1.380534310051833E-002  1.952756588083451E-002 -1.220522064526431E-002  0.993236566938777       0.994638499095819       0.997380448111721       6.832857248374354E-003 -6.515322474204854E-003   1.00603451826682        1.00599954025467       0.967586486697065      -5.610512404173126E-003 -4.895147745903699E-003  4.378488869804985E-003
  0.970742959324005       1.264878474290447E-002  0.999044171225206        1.00073564576543       2.192355410181681E-002  1.975862829261518E-002  1.742305972398393E-002 -3.803485195504721E-003  2.195793711175192E-002  0.974872360624712       0.972050300566363      -1.462142416048499E-002  0.987806569766839      -1.046576448551181E-002   1.01045715721332       1.575857020953414E-002
  9.184239844053029E-003  2.010646378432464E-002   1.00463699039002       0.968165950785207       0.965585937965312       0.996013216261577       0.962619649054793       2.432169041053638E-002  6.072657827199096E-003  2.224736679130937E-002   1.00862978073924       6.711881533397130E-003  4.022054396273099E-003  3.702510097895666E-003  1.808139991552133E-002  3.212933740526796E-003
 -8.728106049705017E-003  0.990307903695605       0.985316312193264       0.983298095799441       0.985714657063328       0.987752588143961       0.994980117282248       1.485464411670162E-002 -1.671504514072345E-003  0.966185470659711       2.072081675681090E-002  0.969441761898745       0.990843812282830       0.989859661884444       0.987507088345243       0.985299393225781     
  0.988191094548029       0.989128711364684      -1.225220325904227E-002 -3.115711606042808E-003   1.00020471102731       0.984430873590570       0.968282260948903       0.997919035330432       0.996700728637547       2.667698296934988E-002   1.00809918934513        1.00632847463879        1.00986498355459        1.01156083831795      -1.292850430643674E-002 -1.552700441162599E-002
 -8.345070549658986E-003  2.005271015188160E-002  1.753709107551698E-002  1.478245664724155E-002 -9.952189185017632E-003  0.990628758158068        1.00897871370556       6.099426309177041E-003  0.980433650050773      -7.064136871410060E-003  0.992309222301589       0.993014517372331       0.994168288773563       1.531786607495464E-003  0.972293709315293       1.273745205237241E-002
  1.231465603360598E-002  0.980893891909716       0.970677481360798       0.959308525845996       0.963050626202712       0.960167611726580        1.00412516493926       0.964695708221074       0.967783500484725       0.973657553794633       0.971982117699645       0.975638249094829       0.976552338593971       0.974941247755222       0.973312135815286       0.957185646249790     
  0.953907366782859      -5.178257636591784E-003 -1.270488226077011E-002   1.01206517103173        1.01327106410039       0.982407156294502       0.979843181898884       6.483928053592684E-003  6.099795097004664E-004  9.029585150324029E-004  5.843584010885979E-004 -6.134913515460015E-003   1.01135584830600        1.00705347859332      -1.030297079599791E-002  2.925039917735282E-002
  2.639316566624600E-002 -1.498340397449162E-002  9.425845177695347E-003 -1.538762007621288E-002 -1.831550946288043E-002  0.992008382049259       0.990107879197189      -1.250373056466892E-002 -1.524639512310615E-002  2.683569959779306E-002   1.01096221985189       1.207289835172591E-002  0.986495922681930       0.987084708349012        1.00302733915361        1.00902684823149     
   1.01189531488998       0.987708030731362       0.961866027934928       0.958920273712112       0.955691161931964       0.952160979823730      -2.827887135257453E-003  0.977852602066049       0.984932114916802       0.984347463269165       0.982637850009599        1.00917790765415       0.977519800091297      -1.219300107317087E-002  0.984106407706650       0.967105283683975     
  0.969020895190112       0.970370498416921       0.971541961207233        1.01106712047580        1.01164376620226      -8.687304538497897E-003 -1.791829050122996E-002  0.963460974089669       0.973862876268751       0.970939344321208       6.463413851324689E-003   1.00717162364968      -4.210618404262923E-003 -7.872483753078835E-003   1.01186997059081        1.00418204472588     
   1.00205807294577        1.01285293148133       2.290113375935136E-002  2.951516842387628E-002  2.679594413562579E-002 -9.246176819114603E-003  2.260861961346729E-002  2.440518426713878E-002  2.352450682366853E-002  0.978121262017887       0.976732397429777       3.468327511949018E-003  2.908446648950216E-003  0.999071102234889       9.643393773806316E-003   1.01394275090185     
  0.960926758951478       0.987643647626254       0.993394588662990       0.995246095356208       0.957732983009496      -1.198157736525074E-002 -1.509583836510257E-002  0.964615514852230       0.980241213555161      -1.515017933773428E-002  0.981275146259191       0.984491562838773       0.990864862158228        1.00647719907446       0.972954846987440       0.969125820588167     
  0.966059060068506       0.963771813324600       0.967745367459876        1.01331051067530      -7.368364665213860E-003 -1.091088288109376E-002  1.185973465063786E-002  2.450512167535035E-002  2.044910319668906E-002  1.766440065779678E-002  3.201659172806757E-002  2.956299872733560E-002  2.811126539496927E-002   1.00501654137352       1.469795925516135E-002 -1.637120732416014E-003
 -1.620811003593511E-003   1.01414712717655        1.01645677448104      -1.527658642785053E-002  0.954623629261284       0.951506048706575       3.244401160646874E-002  3.016141831981491E-002  2.790669220076859E-002 -1.244908369733435E-002   1.01382620288716        1.01751939569134       0.975391054701899       0.969944686661716      -5.292835657280654E-003  9.163602974046361E-003
  6.839270790202604E-003 -1.832451031177374E-002   1.01406565935690        1.01516244510721       2.484947017325864E-002  2.144176334939532E-002  0.965924052660743       0.967444326725409       0.968940373967001       0.969127157441229       0.997784849892253        1.00552677601885        1.00825817244325        1.00405999751829      -1.050848723818484E-002 -1.301366657742691E-002
 -1.518163831459550E-002  0.948320294138032      -1.066892400196395E-002 -1.407962240282097E-002  0.975294390932000       0.956112632819023        1.00903812461853        1.01187726258625       0.981150647256265      -1.399917829528383E-002  0.991256279115684      -1.767772728354291E-002 -2.096645894513218E-002  3.536320954952180E-002  3.318118372465368E-002  3.104245377051312E-002
  2.906776601123743E-002  0.972348380064182       0.975150743729410        1.00098135459866       0.999735300799331       2.378979651767859E-002   1.00717974801070       3.512677971143120E-004  6.260206245848226E-003  3.413357013575998E-003  0.966657708145264       0.969041035705382       0.978308183635147       2.461813906996181E-002  1.847395533569258E-002  1.581784385220287E-002
  0.999766318557401        1.00230497809437       0.998850371506472        1.00594578015659        1.01462919862782        1.01483240460665       1.288239587264591E-002   1.00356122655073       3.492827075226738E-002  3.202951031308619E-002  0.953058865878467       0.949799746959249        1.00539271568409       0.946228680032704       3.829841770841155E-002  3.605915613692615E-002
  3.393898404254105E-002   1.00900687969420       0.960863326429150       0.957375153535894       1.896866088295213E-002  0.962494955539980       0.984973883047055       0.977001606845633      -1.670267989019990E-002  0.965558398253798       2.080208921820230E-002  1.776083329038313E-002  0.964204092893989       0.966198040248728       2.046284312024342E-004 -6.961548175010076E-003
 -1.398372232570125E-002  9.885608501075888E-003  0.963852097732778       0.961648375280333       0.967981562281741      -1.755204907438422E-002  8.864980449136986E-003  0.954577130059684       1.457663081082162E-002  2.226009975445912E-002  2.567919469483671E-002 -1.239442838470912E-002 -1.533468829992628E-002 -1.378345685282095E-002 -1.710066864704266E-002 -1.756846391444491E-002
  0.954593443178490       0.958770587888562      -2.160715568558256E-002  4.133663310843684E-002  3.892396595090514E-002  3.657447664470497E-002  3.478425273489315E-002  6.841262011918715E-003   1.01239390651720        1.01696983170848        1.01892099717639        1.00974826461901        1.01665495189932       0.971734419469084       0.975134349810854       0.960569717155799     
 -2.134231792914829E-003  3.808142567388898E-002  3.530056020299443E-002  3.225898910844509E-002  0.951722648995301       0.947949467256369       2.419774585955072E-002  0.996712281675816       4.302699953759002E-003  3.978127777394492E-003 -1.795095817554258E-002 -1.575105690048738E-002 -1.761745839656844E-002  0.962554684084192       0.958656034480340       0.978094778157516     
  6.152420220300694E-003  4.025783438846941E-003  1.317925290574679E-002  1.155895317164217E-002  0.943397039835309       0.948594172968755      -1.833806975964245E-002 -1.825916510154270E-002 -1.757512118647889E-002 -2.136131126929323E-002  0.964871679600521       4.453259965760262E-002  4.207149751516872E-002  3.913030547349746E-002  1.960432717633754E-002  0.954268275744227     
  0.957685740210035       0.959855893971003       0.950733593356750       0.956424198678974       0.952869255289997       0.949260107987605       8.187552635051932E-003 -1.227654684008805E-002  0.997742999070859       0.974344690752526       0.973133081059854      -2.028490185950494E-002 -2.025561599907150E-002  0.970739065588040       1.618163944448043E-002  1.388575529505125E-003
  0.981428792174646       0.984474153784798       1.666636481863757E-002  2.105436016163572E-002  1.784455521382247E-002  1.446562718885098E-002  4.133882165883314E-002  3.868121570290688E-002  0.978759563673749       0.973556390922695       1.003136742349590E-002  6.721538262222825E-003  0.945149360587548       0.941655341838738       9.150525934812563E-004  1.116169530903905E-002
   1.01421563253418       0.960769708170791       0.956642688456514      -1.923517871260342E-002 -2.146998716289430E-002  0.938062431190846       0.934418507644671       2.319724733306578E-002  0.947201255869427       3.580886787621404E-002  3.261144111936102E-002  2.698797741962860E-002  4.785219345677048E-002  4.545386352022395E-002  4.299852564556737E-002  4.092591597411072E-002
 -2.583543923490242E-004  0.987681044574362       0.990910391877367       0.955101757952479       3.712336036242542E-003 -1.993651185686982E-003   1.01420277859356       2.452831077536089E-002  4.464082768928768E-002  4.202515884820335E-002  3.949583811698522E-002  2.035182778934612E-002  7.357911536847258E-003  1.350838768703934E-002  0.943693328892207       0.940108680604033     
  0.942425201720979       0.987646077588196       0.994104540535767       0.994175159709581       0.945472913038957      -2.251491085291981E-003  0.958704309089071       0.951361406889577       0.947593917222780       0.988653277806362       0.992341939641202       0.938332727726835        1.01076049779198       0.990919524712775       0.934534753586238       0.956662674368115     
  0.954652792275598       0.952506903063960       0.971683453466701       0.945746792119780       0.957547458622062       1.015449649996759E-002  6.548474115193015E-003   1.01650659012704        1.01508816679918        1.01652197278272        1.01875457683823       7.986959190641632E-004 -1.433549089509055E-003  1.081647845870257E-002  4.802086634080483E-002  4.524853422849155E-002
  4.269161346951058E-002  4.120451860243669E-002  0.950309229901072       0.946194732986599       0.930530355308815       2.132771859576971E-002  1.797874789789672E-002  2.702624216827331E-002  0.989597000244497       0.978333256074244       0.982210521362554       0.985945716076543       0.975046679751483       0.975037619833077       5.127697084427513E-002  4.884045205537704E-002
  4.637406943772136E-002  4.399853283898156E-002  4.091621332925968E-002  0.953624554149861       0.956028076350881       1.445856888491983E-002  1.721910856997962E-002  0.961575476833809       0.993270370656272       0.964100171436290       0.960083195177597       0.966653661130587       0.939948200142346       0.998137316557268        1.00113522823368       0.994314702691647     
  0.942304918714513       0.938618428535664        1.00199890289815       0.948678355703202       1.387161692481216E-002   1.01768301118239       2.865305850528763E-002  3.133847636858096E-003  0.936360727151667       0.952622907076298        1.00042829364689        1.00317111086871        1.00629906114338       0.967447349064614       0.944799184524671       0.949650407372364     
  0.945096916534374       6.797665272580666E-003  5.155610648488185E-002  4.863616084973606E-002  4.542976324850352E-002 -9.090090325261195E-003 -1.218562972276605E-002 -1.559250441705270E-002 -5.369093707382748E-003 -7.729274624566273E-003 -3.414080934227611E-003  0.987511305822591       0.979484004429529       0.999476607635803       0.944406368166075       0.936541315973782     
  0.932524215714329       2.506817759227821E-002  2.900707984988088E-002  2.430216077834682E-002  0.997004658295914       0.998350482910469       0.990887879862634        1.01803838949855        1.02011695681334       0.990414069669690       0.995933758696908       0.997058096876983       0.994191020722271       0.984290807264280       0.963092996293467       1.030621617365989E-002
  6.471304213821656E-003  0.934577157920229       0.950712378933266       0.948377783064984       3.193806469002416E-002  3.084494609529772E-002  2.886787436200525E-002  0.941959226421616       0.947308278450981       0.943893310025761       5.483028749492690E-002  5.231703608019728E-002  4.971727613643183E-002  0.983285872377612       0.986840272019931       0.987340460398556     