 VARIABLES = "X" "Y" "RO" "U" "V" "P" "M"
 ZONE T="  0.000000000000000E+000 " N=        9944  E=       19548
 ZONETYPE=FETRIANGLE DATAPACKING=BLOCK
 VARLOCATION=([3-7]=CELLCENTERED)
  -19.9782054645671       -16.7460447536127       -13.5432470514743       -10.4462771124608       -7.39483127129757       -4.39431260318683       -1.43672854734527        1.47853524247441        4.40194279230921        7.38347804238703        10.4122197804982        13.5308676756442        16.7310607632789        20.0189460056259        20.0156650185539        20.0123451374732     
   20.0090067226427        20.0056742799471        20.0022854763303        19.9988742323503        19.9954939648514        19.9920871178897        19.9886881104951        19.9853470049941        19.9820070605281        19.9783478910574        16.7317203104092        13.4557822172063        10.1645634122701        6.87452312340184        3.53259687976399       0.170578499054329     
  -3.16443525887912       -6.48474521199279       -9.79114624567630       -13.0836966857758       -16.3754018560739       -20.0188035791356       -20.0155069002833       -20.0121812769038       -20.0088400757232       -20.0054989473046       -20.0021446450312       -19.9987763328347       -19.9953939522161       -19.9920253568386       -19.9886729196427       -19.9853365630757     
  -19.9819979716434       0.999278602231035       0.997758992267184       0.996243986785594       0.994739413112156       0.993190379965076       0.991580537504103       0.989905045903605       0.988168401642620       0.986370497716335       0.984509011107883       0.982569934958160       0.980561822426562       0.978468476771451       0.976302584913903       0.974060283864292     
  0.971734155211068       0.969321636684134       0.966821891699074       0.964232582076824       0.961554044918693       0.958781271402792       0.955906419149786       0.952918334113992       0.949807556685066       0.946602766549135       0.943282240617139       0.939813348595517       0.936238425071480       0.932545293667374       0.928712421618465       0.924704810478531     
  0.920553055682018       0.916251844568874       0.911787226969860       0.907150169339062       0.902334171253803       0.897332663052383       0.892133019983172       0.886722442466635       0.881093241068415       0.875237631985231       0.869156759579869       0.862843396139108       0.856289601407469       0.849485371500627       0.842421860468243       0.835090602882561     
  0.827485245798174       0.819597384608761       0.811418775928166       0.802941057908331       0.794155406240651       0.785054187826695       0.775628512806604       0.765754081426742       0.755519971955718       0.744914778219713       0.733927844402715       0.722552177265305       0.710775416322508       0.698584925008119       0.685973457034930       0.672929257028063     
  0.659438412940995       0.645493544536767       0.631081161497638       0.616184575114909       0.600792673240408       0.584884819017723       0.568448538589503       0.551468364041025       0.534533975801835       0.517563153324363       0.500523621444485       0.483415478738079       0.466238363369566       0.448342291755153       0.431043939782192       0.414341723295532     
  0.398233921168309       0.382704550027986       0.367668854384141       0.353108459245221       0.339019280461294       0.325410137685245       0.312265995825285       0.299587880135195       0.287376700398351       0.275614131308880       0.264275086972836       0.253312051651334       0.242712373699279       0.232463626920958       0.222558518001653       0.212988915427094     
  0.203743103330009       0.194809806606234       0.186184388320943       0.177850561959656       0.169798607516042       0.162011490391113       0.154482350271653       0.147204770889287       0.140172628999695       0.133379687792538       0.126819030174008       0.120485065224576       0.114372563899159       0.108476199492458       0.102791417801701       9.731382756964715E-002
  9.203922702798473E-002  8.696411662297740E-002  8.208475250125277E-002  7.739736323051402E-002  7.297983813160773E-002  6.872541658960095E-002  6.463574434725455E-002  6.070906181911922E-002  5.694547789465134E-002  5.332300697636105E-002  4.985324163499407E-002  4.653407424920424E-002  4.334781941202016E-002  4.026537840238735E-002  3.728364396487991E-002  3.437987344114050E-002
  3.155441712659401E-002  2.881233014894701E-002  2.615644409201243E-002  2.359071294993115E-002  2.112123967544944E-002  1.875563511735458E-002  1.661172180133070E-002  1.454860606862864E-002  1.258588428141688E-002  1.074234661430014E-002  9.042575947389178E-003  7.422512480336608E-003  5.846450467766854E-003  4.416241208811147E-003  3.123428569387607E-003  2.005823931159916E-003
  1.122857449265626E-003  5.408892028905276E-004  2.723727856473331E-004  2.404659229883477E-004  5.312467603014381E-004  1.177556056228748E-003  2.130850484747404E-003  3.301659873459056E-003  4.619330389053138E-003  6.029897565301321E-003  7.732093629494185E-003  9.520605077796788E-003  1.141129047334226E-002  1.331810083624593E-002  1.527102226364407E-002  1.731821364185391E-002
  1.951043790365118E-002  2.181405501539178E-002  2.423898909504978E-002  2.672567310675356E-002  2.928170082695434E-002  3.195113440259450E-002  3.477357061884978E-002  3.774649506905495E-002  4.085945949802528E-002  4.410048727504717E-002  4.745875532544375E-002  5.092242741354899E-002  5.448812561002157E-002  5.815573176118025E-002  6.191792737151468E-002  6.613506048952066E-002
  7.049749945956486E-002  7.500269814817022E-002  7.964755643822216E-002  8.436341279198990E-002  8.921947807347858E-002  9.424205910990122E-002  9.942910257190918E-002  0.104782738904317       0.110293275926392       0.115980190755076       0.121884519374112       0.128056033185950       0.134507792708238       0.141243036814152       0.148258334199980       0.155554967563339     
  0.163136094570139       0.171002795449547       0.179159086125875       0.187608509326884       0.196355575679386       0.205585597363176       0.215156907712473       0.225075300087873       0.235349889801700       0.245988993823840       0.256999787367424       0.268392661845421       0.280178400609142       0.292364531558348       0.304961872535413       0.317982731249321     
  0.331434566180942       0.345327240403241       0.359674096364773       0.374475315108479       0.389741415929744       0.405478318774207       0.421671313297616       0.438330496927246       0.455398174145993       0.472865790196531       0.490406977914084       0.507814849968956       0.525087594914974       0.542227542683562       0.559238372516541       0.575802430029819     
  0.591896352784115       0.607500708641434       0.622614674009284       0.637240579679190       0.651342853563647       0.664933124503754       0.678026875532408       0.690642184812180       0.702799487583834       0.714550160774232       0.725936026834940       0.736965215984878       0.747646088331794       0.757980905591458       0.767978114946302       0.777646558375310     
  0.786995049010568       0.795945934642150       0.804568107021461       0.812866393435969       0.820846678998640       0.828513601151957       0.835871481791374       0.842927535938026       0.849744114738435       0.856350997939901       0.862751251583994       0.868948635078181       0.874946992025776       0.880750290706917       0.886361805538679       0.891784637369405     
  0.897022230096625       0.902078933972472       0.906962471850434       0.911677399101061       0.916228234120497       0.920426614677274       0.924509326380950       0.928474536568095       0.932325161687048       0.936046377978887       0.939635247159499       0.943098152602317       0.946427429190396       0.949626724320888       0.952711355539350       0.955657390485837     
  0.958471490371473       0.961209833070223       0.963869411722430       0.966448424367882       0.968945648073611       0.971360526803154       0.973694246839579       0.975947859393865       0.978124673689100       0.980228583037883       0.982211590990731       0.984140610494227       0.986001023419741       0.987797554802284       0.989534149728105       0.991212091690071     
  0.992826937211460       0.994379940219624       0.995873593438853       0.997363618019505      -9.972076357432748E-004 -8.177264492451178E-004 -9.207562931065247E-004  0.995518731912954       0.996961895457231       0.995512881693412       0.996761320981222      -2.410018511229102E-003 -3.738438452610789E-004  0.995201662656389       0.995981968938096      -2.006422158323945E-003
  0.994127558922175      -2.318336786148525E-003  0.993659901256491       0.992007147985188      -5.377547942863447E-004  0.992407093543180       0.993390726053072      -2.311070940170213E-003 -3.891927548876370E-003  0.994511982752156       0.994676338978099       0.998397741357971      -1.417407971922912E-003  3.572309916069431E-004  0.990657262984445       0.988887644826710     
  0.987114242216397       0.991502772022315       0.997710352371980       0.993000248213386       0.990796837673030       2.704281117475096E-004 -1.937430434201581E-003 -3.969305384800313E-003  0.992392497187475       0.996964244754559        1.00004607996791       0.997674516207241        1.00072485934846      -3.321079212146727E-003  1.362724010763216E-003  0.996098990371061     
  0.996479242549724       0.999038926573802       0.989069973318733       0.989673453018563       0.987822909251385       0.985909981980902       0.990524946219028       0.992305601810108       1.388637434422431E-003 -6.053388473681611E-004  4.083555703064839E-003   1.00183544975602       0.990060807013502      -5.326670770008986E-003  2.609987831312832E-003  0.990510955058749     
  0.987192007709217       0.988581615322294       2.655473641771316E-003 -4.010153091244849E-003  0.991253684311190       0.999454373789541       0.998917056123885       4.065744906477669E-003  0.988680764157516      -2.578690050815366E-003 -3.745768665810241E-003   1.00274488830299        1.00081318733647       0.994403476806620       0.998541150272385        1.00061728623572     
  0.993298105857556       7.382715631733027E-003 -2.368525449126177E-003  0.999183532179196       0.998336114569821       5.691776925190582E-003  0.985232707112051       0.983253094469262       0.991465587339546       0.997582332440015       0.986485757696333      -5.783060664695900E-003  0.987890648313005       9.043262960621058E-003 -5.343093263089571E-004  6.340529498230830E-004
 -5.340639948630876E-003  0.983816093365459        1.00302434476711       0.986695032001035       0.984490221222304       0.997366050742092       0.995332281282025      -1.519122740257152E-003   1.00361454384272        1.00549628436251        1.00134665662549       0.984345803941819       0.982103817196709        1.00045444224876       0.993770441333451       0.985705459821427     
 -4.767878773957881E-003  5.671904849818499E-003  1.953290142743639E-003  7.427174221507188E-003 -7.110699516668957E-003 -1.555903512505976E-003 -1.519777488516351E-004  5.820818874436052E-004  2.071790927942165E-003  0.994286209284254        1.00219468882047       0.995192182610131       0.987823318868655       0.992108925703210       0.981438710926065       0.979281547677021     
  0.982269071730357       3.765654492224743E-003 -5.539452443249385E-003 -7.402685480865577E-003  0.977132318886180       0.989298211112720       5.697843254425498E-003  0.985542658500702       0.990502688867767       0.993248891163047       0.999965027126490       0.999196326392580       3.534006067883890E-003   1.00495233055854        1.00392154069850       0.996132691120015     
  0.998087126834849       6.202779585773804E-003  0.999581391568193        1.00188617795905       1.080716718839033E-002   1.00250583592185        1.00644665434760        1.00419390398183        1.00679616847760       0.989634709112985       0.992798175629807       0.988624438423717       1.528056047753704E-003  7.484968271681267E-003  0.989579191091713       0.985468709779521     
  0.982812600957439       8.824310624813276E-003 -5.977964962704277E-003 -3.747390645246818E-003 -2.578182412331188E-003 -3.838377094093052E-003  0.990917120235364       0.992034510887517       0.980149139728727       0.977954219929844       0.975574111495178       1.134218984637081E-002  0.991629679539137       0.995576833665641       0.994552926613803       0.996673609548068     
  5.309851426994358E-003  1.330599923806831E-002  0.987233684236949       0.986930584527508        1.00280696075262       0.988859485819090       9.385719831516152E-003  0.986898235551272      -4.001048391969372E-003 -7.926016852005438E-003  0.980943861662744       0.979716705734394       1.278102225060820E-002  0.981499512294572       0.977232229359800      -5.966034930194476E-003
  0.984992985231180      -7.476438587688801E-003  1.083464299184660E-002  0.994161532349730      -2.817453925425785E-003  3.572978737399517E-003  0.974955444686346       1.132266389610362E-002 -3.360719435509239E-004  1.185833533269732E-003  1.531411697605134E-002 -9.990896672939160E-004  7.247646712582231E-003  0.978345261400967      -6.320467935083065E-003 -9.020050002043868E-003
  9.290420463097391E-003   1.00515072592537        1.00804757216977       0.979042858692597       0.976589930528680       0.973475899037436       0.984130822034690       0.981986591578446       0.993281597103244      -1.369053642324250E-003  1.325233046762233E-002 -9.738853573697066E-003  0.976319987139681       0.973959530808687       1.487780199974511E-002  4.915493801024203E-003
  8.583782527691050E-003  1.136359777950446E-002  0.972605687514476       0.970225608058623      -8.130567428017411E-003 -1.028128826492586E-002  3.547244358555685E-004  1.300494008781378E-002  0.983335186035556       0.980514802739638       0.982407105420567       0.979784924454244       0.980489187951780       0.980043131239913        1.00847584754450        1.00520566949476     
 -5.737614489553599E-003  9.341652908515293E-004   1.00173436752987        1.00097643486607       0.984410830398607        1.00383026601413        1.00347819540749       0.971469585494757       1.706705998700544E-002  0.981457192718600       0.982848423884123       1.096490738937817E-002  0.998263192557635       0.989166154222584       0.968898947212971      -3.706824965520026E-003
 -5.164269431792413E-003  0.985160647605872       0.995615868438940       1.522931989933110E-002  0.979110963700698       2.946063426375565E-003  1.744952012342182E-002  1.527421181110215E-002  0.973106521268756        1.00744914209673       0.978207374907639        1.00092986993581       0.999860299921734       0.977956851746306       0.997145364082927       1.330383832311000E-002
 -4.150500628170697E-003 -8.151779471897441E-003 -2.471601262086581E-003 -9.936506616914361E-003 -9.633501932546099E-003  3.331190043985460E-003  0.975232834139155       0.975516314099518       0.972942785855133       1.136539645942732E-002   1.00909960723788       0.970411760461157       0.967945070018600       7.065404705005960E-003  0.971304102038829       0.965457699205798     
  0.963219679261342       8.664231074039529E-003 -7.898286282737350E-003 -1.080748001050455E-002 -1.958592261067839E-003  1.973126097818851E-002  1.753208229778128E-002  0.996023842482165        1.00265939339143      -1.177272325187531E-002  0.982530151440846       0.979353851299814      -5.395062285160894E-004 -7.023352720582450E-003  1.515030263627956E-002   1.00157299936987     
 -1.043252179512825E-002 -1.277666257791984E-002  0.977301536851437       0.976823838220958       9.343049349115701E-003  9.952945703691866E-003  0.987211135359186        1.01057177898437       0.990110179801624       1.555584790289400E-002  2.328789744036306E-003  0.969095876656493       0.966603127221595       0.963968043425863       0.960908740597969       1.752626473688726E-002
  1.538199377053767E-004  0.970242285823483       1.367397272712719E-002  1.937411499647403E-002 -1.215244727095558E-002  0.993007587116445       0.994410703991955       0.997150021465068       7.002841306816143E-003 -6.520245956897324E-003   1.00577957361914        1.00574409459091       0.967407356805780      -5.481588842185467E-003 -4.916630796889769E-003  4.542244097656101E-003
  0.970481041273514       1.251824852891201E-002  0.998785644683820        1.00047769177851       2.211675644973463E-002  1.994817448909064E-002  1.760850867195760E-002 -3.665450352587461E-003  2.179021183696832E-002  0.974675691853928       0.971860523318232      -1.456002241969702E-002  0.987587580310959      -1.036168923572776E-002   1.01020819941791       1.561658187475522E-002
  9.071554959937287E-003  1.994706220028334E-002   1.00438067741881       0.967904603366727       0.965325157574588       0.995786971326966       0.962359777259693       2.451543062414645E-002  5.987932790254389E-003  2.243815818874720E-002   1.00837596613427       6.880177689516489E-003  4.184851090328023E-003  3.864171377383005E-003  1.793055356058334E-002  3.139125875778074E-003
 -8.608035270302546E-003  0.990086223778275       0.985100159912183       0.983086428290054       0.985499756394645       0.987536340041522       0.994720473833697       1.503552733967874E-002 -1.524516539281171E-003  0.966009425672641       2.055562063116140E-002  0.969180308038631       0.990582955977594       0.989598315343482       0.987245283201053       0.985037611344842     
  0.987929747823522       0.988867761196834      -1.221941374173031E-002 -3.154951560722395E-003  0.999971937481250       0.984220964739859       0.968099967397574       0.997660226590538       0.996441664609447       2.687080917237426E-002   1.00785585645752        1.00608710430779        1.00961977626497        1.01131415431743      -1.283309129958624E-002 -1.544040294241986E-002
 -8.234223467106594E-003  2.023979877527700E-002  1.771982285526871E-002  1.496050030450731E-002 -9.840915227754956E-003  0.990410528693544        1.00872430617774       6.003990966820924E-003  0.980226538472085      -6.935521125783004E-003  0.992083601311125       0.992790713444509       0.993947799916052       1.687690999359642E-003  0.972031761761612       1.291911932322371E-002
  1.249342864242395E-002  0.980689805266314       0.970415970875160       0.959049902015414       0.962885080165376       0.960010509080990        1.00388313890335       0.964525622764637       0.967522377299816       0.973395664622461       0.971720606751664       0.975375690788820       0.976290164664864       0.974679469204639       0.973050671944971       0.957037477264377     
  0.953769169875443      -5.041463185946827E-003 -1.260163947478446E-002   1.01181529790746        1.01302036247208       0.982145321319044       0.979581395546503       6.378175362483085E-003  5.454887308994013E-004  1.058339111136382E-003  7.392657667179204E-004 -6.165113665918681E-003   1.01110276160592        1.00679811851062      -1.018239549818696E-002  2.944382631750229E-002
  2.658361722033892E-002 -1.494135571018437E-002  9.598563295984295E-003 -1.529162777269044E-002 -1.822677399182279E-002  0.991748008664435       0.989847321734493      -1.242996590249328E-002 -1.517156832119843E-002  2.664331857043885E-002   1.01071962772022       1.224865220976455E-002  0.986234566702839       0.986823628552550        1.00279258240219        1.00878619879005     
   1.01165532040452       0.987447304280681       0.961703762353083       0.958766527404491       0.955546746448236       0.952026928575630      -2.681643742229274E-003  0.977654233201862       0.984670738581946       0.984085915572912       0.982376309159511        1.00892311387510       0.977257873592537      -1.208131023783213E-002  0.983845194240807       0.966844202512575     
  0.968759692451815       0.970109241760901       0.971280672416122        1.01081495707802        1.01139010547570      -8.559319974356994E-003 -1.786867727071147E-002  0.963294752042425       0.973670369354043       0.970753582190754       6.630009756507948E-003   1.00693312213819      -4.256930088503748E-003 -7.886399627708087E-003   1.01161584979415        1.00394328712835     
   1.00182708221590        1.01260846698244       2.308979012787976E-002  2.930725503188249E-002  2.660201200600658E-002 -9.268530577176401E-003  2.243544173423198E-002  2.422444073623714E-002  2.334598386093873E-002  0.977924730661609       0.976470779359994       3.629141421658902E-003  2.821518234649554E-003  0.998842371484290       9.522607031573092E-003   1.01369099696692     
  0.960767494633350       0.987431739744642       0.993134706512590       0.994986769842789       0.957475282521863      -1.186061771947117E-002 -1.506670051158018E-002  0.964354982978795       0.979979735489537      -1.504784433302471E-002  0.981074327025577       0.984287112844702       0.990651212705980        1.00622135047851       0.972765732799092       0.968943480308420     
  0.965885602793369       0.963606044200053       0.967567832372199        1.01306276412060      -7.406806243986494E-003 -1.091830459093183E-002  1.203283869958560E-002  2.469675717599465E-002  2.063338162982557E-002  1.784422547990959E-002  3.220919589932487E-002  2.975375952848926E-002  2.829713466340385E-002   1.00478353198246       1.487329338040917E-002 -1.690406788140102E-003
 -1.685889320583579E-003   1.01390119399454        1.01621026763762      -1.516813934398911E-002  0.954367052112964       0.951250544004191       3.222110924953026E-002  2.994814695969119E-002  2.770280895365844E-002 -1.246479857063045E-002   1.01357354561964        1.01726830853160       0.975196876598495       0.969763243697109      -5.345082181074826E-003  9.333885515149092E-003
  6.726151204106438E-003 -1.824882135642152E-002   1.01382393508411        1.01492323573902       2.466633642294385E-002  2.127049087851791E-002  0.965663264731415       0.967183330621533       0.968679247987709       0.968865990989527       0.997560650066106        1.00529068080021        1.00802276559784        1.00383084637634      -1.038091789143587E-002 -1.289827003116525E-002
 -1.506709804774251E-002  0.948065882057088      -1.069891048739463E-002 -1.410352738251956E-002  0.975102013834182       0.955855119916060        1.00878298989699        1.01162281653279       0.980889452596845      -1.400105291031161E-002  0.990996108962152      -1.764477092715699E-002 -2.092815441253858E-002  3.512708781263578E-002  3.295428385850038E-002  3.082373421102327E-002
  2.885611152785173E-002  0.972163049652017       0.974961132671177        1.00075436880344       0.999512855069550       2.397516423185410E-002   1.00694909375937       5.060285859487514E-004  6.425421610839557E-003  3.573848251049136E-003  0.966485505979942       0.968864331965080       0.978114075952547       2.443187309479742E-002  1.831719698739159E-002  1.566993963480798E-002
  0.999508045956138        1.00204734406015       0.998591791046519        1.00571805368295        1.01437622995869        1.01457890557245       1.274446302329968E-002   1.00330416592268       3.511958727574467E-002  3.221882711178576E-002  0.952802225920217       0.949544071638085        1.00513596203146       0.945974048230957       3.804977634863579E-002  3.582045412222898E-002
  3.370882206634200E-002   1.00877877543973       0.960603922932461       0.957116859990802       1.880555458196329E-002  0.962234866888918       0.984713013438304       0.976740239169172      -1.668212732136631E-002  0.965390493973371       2.098312930330093E-002  1.793776607861070E-002  0.963943524499599       0.965937137733320       3.587633454824945E-004 -6.826570415630956E-003
 -1.386191443837993E-002  9.757258614906500E-003  0.963687518323900       0.961489542849186       0.967809943983381      -1.748733573308799E-002  9.033168855871911E-003  0.954319685383120       1.474940750062209E-002  2.208160638527924E-002  2.548399748556211E-002 -1.238804328016688E-002 -1.532449863359992E-002 -1.376424029806966E-002 -1.709770357657771E-002 -1.746709103219162E-002
  0.954335329889617       0.958511377880001      -2.153028488842243E-002  4.107482332238179E-002  3.867378464192596E-002  3.633388800889179E-002  3.455021749582829E-002  6.721161693637723E-003   1.01215732794450        1.01672911795865        1.01868240267970        1.00950974424221        1.01641916593714       0.971553592625129       0.974948091885409       0.960309741411581     
 -1.984656728807783E-003  3.827104095786699E-002  3.548834794699816E-002  3.244430221446929E-002  0.951465752118044       0.947693302104923       2.437935769539023E-002  0.996492270907004       4.200409896860990E-003  3.871298730535818E-003 -1.793880644356626E-002 -1.576121102855764E-002 -1.763598432107765E-002  0.962294160945253       0.958395958080773       0.977832173742477     
  6.316864568641754E-003  4.186358413314801E-003  1.303454048381210E-002  1.172974402641627E-002  0.943141759605939       0.948471949183397      -1.823249442974707E-002 -1.814608310131054E-002 -1.747800811116154E-002 -2.126995991749689E-002  0.964610742345967       4.425707011827142E-002  4.180675232628939E-002  3.887767407631278E-002  1.943439858938213E-002  0.954127783321087     
  0.957535572144398       0.959700372767683       0.950603732042308       0.956277809900133       0.952732909525856       0.949134199502255       8.353853062362304E-003 -1.231148497289649E-002  0.997526649161023       0.974083287142150       0.972871758496057      -2.027727145025856E-002 -2.023417449906951E-002  0.970564014809573       1.602749077593393E-002  1.295131153749169E-003
  0.981231367545137       0.984273767194575       1.650543962943157E-002  2.123235577839614E-002  1.801872617810134E-002  1.463586822478280E-002  4.152643946169735E-002  3.886739684596170E-002  0.978567123799576       0.973378278027950       9.895752237149993E-003  6.594422471379193E-003  0.945037360652078       0.941553430980828       8.148298769670633E-004  1.133020160011388E-002
   1.01396145924909       0.960509035414275       0.956382317282234      -1.924048960416193E-002 -2.148446458228922E-002  0.937970961965452       0.934337639029189       2.301098045037714E-002  0.947082018120358       3.599323574065671E-002  3.279359907033966E-002  2.678452449094778E-002  4.756354054676613E-002  4.517572768936302E-002  4.273002938081742E-002  4.066495407353905E-002
 -1.055039429096979E-004  0.987473935902351       0.990701266854010       0.954959425418685       3.599718168783827E-003 -2.075730478251376E-003   1.01396954178780       2.470714207029225E-002  4.482623160981843E-002  4.220949300628207E-002  3.967886303814221E-002  2.017462507419967E-002  7.521671475736829E-003  1.335645677493260E-002  0.943583826048508       0.940009050964216     
  0.942171819111051       0.987443232738091       0.993889269769022       0.993964605276474       0.945219330929833      -2.345311376868265E-003  0.958552063532279       0.951229130233843       0.947471989958325       0.988392834885674       0.992082050026338       0.938079989151329        1.01052834307935       0.990714606665563       0.934282345359367       0.956403363850598     
  0.954393183416398       0.952246847736121       0.971422121674317       0.945630650366452       0.957399670653905       1.001114525854106E-002  6.413156760041935E-003   1.01626304692033        1.01483935325317        1.01627213806415        1.01850702224380       6.920565158295884E-004 -1.540549313385062E-003  1.098248410666077E-002  4.820377142603734E-002  4.543095482091827E-002
  4.287358068617470E-002  4.138389974406095E-002  0.950051707816886       0.945937614147594       0.930278020328772       2.150280688738284E-002  1.815020787127104E-002  2.720795625551964E-002  0.989336702924977       0.978072011206064       0.981949503107749       0.985685015736257       0.974785354832656       0.974776240966766       5.097535464856504E-002  4.854998298585541E-002
  4.609347123932724E-002  4.372654632472493E-002  4.065664016425372E-002  0.953486413045127       0.955884725018782       1.462625906898986E-002  1.705080445807074E-002  0.961415911371061       0.993010573337315       0.963937508923046       0.959930368888907       0.966487633605017       0.939694147656723       0.997878522499720        1.00087696427516       0.994107938875514     
  0.942197317615720       0.938520965332542        1.00177861377158       0.948420033123205       1.371188487801566E-002   1.01745107350245       2.883269969585229E-002  3.015240224387301E-003  0.936271674085921       0.952364217776954        1.00021403950944        1.00294557521130        1.00607495842324       0.967186066776608       0.944541004655183       0.949521678125608     
  0.944979815938365       6.958773122496088E-003  5.173605243756857E-002  4.881598592599945E-002  4.560944458566429E-002 -8.957168140520048E-003 -1.205829109399090E-002 -1.546984531022063E-002 -5.227197893952935E-003 -7.590951458176837E-003 -3.266346284021856E-003  0.987312676532102       0.979222810352537       0.999217919565547       0.944292687586730       0.936287390272625     
  0.932270257818193       2.524365734965669E-002  2.918221577225258E-002  2.410800467226509E-002  0.996793469699193       0.998142107053307       0.990687049768706        1.01778641011838        1.01987623284343       0.990153793061001       0.995674515164960       0.996798855094662       0.993931188855795       0.984094339230887       0.962831823206395       1.015451708350288E-002
  6.327026206966525E-003  0.934490583790411       0.950453182462342       0.948118049454845       3.171552230083111E-002  3.062541570609470E-002  2.865347367128871E-002  0.941702348020592       0.947049348902336       0.943633945339626       5.451551551536515E-002  5.201384894682233E-002  4.942553628388079E-002  0.983024936926490       0.986579621020689       0.987079763736629     