 VARIABLES = "X" "Y" "RO" "U" "V" "P" "M"
 ZONE T="  0.000000000000000E+000 " N=        2335  E=        4433
 ZONETYPE=FETRIANGLE DATAPACKING=BLOCK
 VARLOCATION=([3-7]=CELLCENTERED)
  0.994679599901101       0.988870263305802       0.982452216326039       0.975359019783248       0.967517918521686       0.958847949637708       0.949257441508211       0.938923296778912       0.928040667097022       0.916577058133738       0.904497880671271       0.891766624951535       0.878345054930836       0.864192541999993       0.849265297696265       0.833517406414354     
  0.816900250607269       0.799361738798049       0.780846699831021       0.761296475282119       0.740649304309732       0.720551198552966       0.701401565857553       0.683159947254663       0.665787700779627       0.649248139192545       0.633506377140796       0.618529384402978       0.604285762132668       0.590744848647508       0.577877280254757       0.565655048433236     
  0.554050774338977       0.543037522032753       0.532880688865794       0.523745254393203       0.515531441438146       0.508148223061864       0.501513199832898       0.495551483147553       0.490195195397271       0.484753238190155       0.479208505792172       0.473560193059539       0.467807306678639       0.461948255289760       0.455981148319591       0.449903595235167     
  0.443712800581527       0.437405563854683       0.430978295888822       0.424427108939698       0.417748005743688       0.410936894507642       0.403989507717771       0.396901850397039       0.389669663669875       0.382289101712787       0.374756497252199       0.367067725304892       0.359219029749667       0.351206527940861       0.343026508980876       0.334674799885455     
  0.326147236181522       0.317439851855474       0.308547984888198       0.299467165876557       0.290192854388910       0.280720155647876       0.271044267101736       0.261160295607250       0.251063123283244       0.240747984671514       0.230316999209473       0.220091000514973       0.210066465115332       0.200240906533418       0.190612222253715       0.181177103159365     
  0.171931951734966       0.162875501350674       0.154006471530093       0.145324163836815       0.136826638281853       0.128508548850772       0.120369878994774       0.112411537880059       0.104634397833373       9.703243251405351E-002  8.960387736390775E-002  8.235259466943115E-002  7.528176332300612E-002  6.838241059640061E-002  6.165983426804507E-002  5.512494545800599E-002
  4.877055149482719E-002  4.260480978063954E-002  3.664187237103015E-002  3.087640094628409E-002  2.534169614745789E-002  2.003263179683857E-002  1.504868658076875E-002  1.042492238836236E-002  6.394344949746097E-003  3.101857302824040E-003  7.620256404360275E-004  1.569228746079327E-004  2.166933476971419E-003  5.652042299130601E-003  1.059448055805238E-002  1.689221078336922E-002
  2.432558662814415E-002  3.285337999822416E-002  4.252103499819775E-002  5.240345091094327E-002  6.239889780676251E-002  7.249202482077843E-002  8.264736076337020E-002  9.286576126149469E-002  0.103130124436374       0.113433784277012       0.123776897120505       0.134150338190931       0.144547654056484       0.154969138283415       0.165410543538838       0.175866971309585     
  0.186334324161232       0.196811271347034       0.207296159151555       0.217786662700400       0.228280957841026       0.238777620388612       0.249276005930166       0.259775743877051       0.270276039611908       0.280776400271628       0.291276732706759       0.301776635916037       0.312275772085236       0.322774005272200       0.333271105369064       0.343766841759829     
  0.354261483661122       0.364754900448876       0.375246865208319       0.385737083824438       0.396225504450655       0.406712177264844       0.417197152063781       0.427680678755138       0.438162435894614       0.448642182593851       0.459120047427114       0.469596059103769       0.480070237059804       0.490542342312348       0.501012409668334       0.511480792076145     
  0.521947405295893       0.532412229764558       0.542875284918126       0.553336678624550       0.563796085628551       0.574253282064138       0.584708847159305       0.595162886241352       0.605615167187172       0.616065944604641       0.626515663049923       0.636963514855863       0.647410158917169       0.657855595106809       0.668299922146389       0.678743337987248     
  0.689186043375445       0.699628541700515       0.710071335843862       0.720514826281341       0.730959809391487       0.741407181163670       0.751858037444089       0.762313673046541       0.772775981339056       0.783246858738443       0.793728805932205       0.804224723194473       0.814738109480638       0.825272663221822       0.835832679878984       0.846422845607428     
  0.857047843894772       0.867712956909897       0.878423268489244       0.889183979229487       0.899999566536819       0.910873900879053       0.921809558672400       0.932808145275564       0.943869477409469       0.954991374725728       0.966168695511852       0.977394055837513       0.988655480994179       0.999939482759179        10.3004800000000        9.70989700000000     
   8.75177100000000        7.46426000000000        5.89863100000000        4.11723600000000        2.19103800000000       0.196810700000000       -1.78589700000000       -3.67789800000000       -5.40348300000000       -6.89339200000000       -8.08753700000000       -8.93736500000000       -9.40778000000000       -9.47857100000000       -9.14527300000000       -8.41946000000000     
  -7.32845700000000       -5.91447300000000       -4.23320000000000       -2.35185600000000      -0.346770100000000        1.69947500000000        3.70124200000000        5.57335500000000        7.23478100000000        8.61234000000000        9.64426800000000        10.2834400000000        10.5000000000000       0.843181376289300       0.528915606894434       0.601214807943545     
  0.899682804749032       0.872937807965070       0.945414279390841       0.923750115559411       0.412362030713615       0.950873492149722       0.517380423437970       0.998247792956301       0.642717424749275       0.986550356993224       0.470995055520066       0.972494177456198       9.590857604359224E-003  0.955307355227037       0.393531394865600       0.363333848042288     
  0.378749268028239       0.414617715210351       0.347273632127238       0.123426565256729       0.440855579414592       0.476696986784477       0.330521321505645       0.572671278777948       0.313046920170163       0.658967625155526       0.294814234155682       0.792079908397731       0.275785187060867       0.979871887660854       0.255911827130346       0.304028424608392     
  0.235204002395518       0.224820536289276       0.214644704145952       0.185276845887301       0.194866980050727       0.166688952374389       0.175893195988282       0.140161388198110       0.157663977601955       4.373923937829612E-002  2.014300409342286E-002  3.753160125401484E-002  4.761322826694461E-003  2.571708652408319E-002  3.154756501290707E-002  6.299223134638398E-004
  0.371122179575772       0.204660562611050       0.321876598781603       0.245645551174976       0.285403706707588       0.265953103495176       0.355389878684026       0.338985634192177       0.886664478573895       0.386209144504168       0.992589398369380       0.964340470988270       0.912032910177989       0.934868457243521       0.827061694422771       0.858457775692678     
 -2.625609210086626E-003  0.498890733670501       0.549310828947121       0.773104261295053       0.693970053516085       0.732560616992489       0.598576617591974       0.627258403143401       0.487788865246843       0.512303653706412       0.453245831686083       0.465187241922359       9.960998716669665E-002  0.427989443875191       0.520166560452670       0.421368834632731     
  5.012057795627167E-002  7.735725623092819E-002  9.203789700792109E-002  0.107356883141646       1.468923017847197E-002  6.341113589483933E-002  8.461636542808051E-002  7.030854655542744E-002  0.482294208332151       0.115307803930064       0.753016273412738       0.493198684258385       0.400703623197301       0.131709580741044       0.560690140296285       0.447108065754528     
  0.505238239519322       0.612556034875909       0.538645715602691       0.676039942126312      -4.609309104157302E-003  0.475404785574553       5.468228606666595E-002  0.180356091693449       0.485905794573737       0.391325137936575       0.962051770052221       0.789600194949241       9.588555747110445E-003  0.506892728661802       0.995670653726356       0.917705471974889     
  0.810628201121563       0.984565118812953       0.928700154374267       0.454401405934878       0.433382559171515       0.684915681533650       0.663997206007976       0.726749912367360       0.705831715020930       0.768622806493780       0.747676979673448       0.852955410423907       0.831734311242300       0.895901341168539       0.874331543951569       0.863621516795865     
  0.906772424440123       0.939756571514585       0.842328037293128       0.885089285816248       0.737211789421152       0.821169436787197       0.779106595186341       0.800106280175989       0.716290161931947       0.758146818322724       0.611681612797840       0.695373723128414       0.632612381833924       0.674456872644922       0.643075130564061       0.653536665535765     
  0.590742379807984       0.622143712514589       0.169821268893065       0.580270707903409       0.538351765261466       0.559315500543515       0.569796989096414       0.527867702495626       0.548833598532773       0.148727283918797       0.159276803557439       9.627529173333374E-002  0.138188470524337      -1.065325478403884E-003  6.507031915053710E-002  0.117213181830736     
  0.127704107812228       8.585446429998715E-002  0.106714371365033       1.672618120057974E-002  7.541942056671842E-002  0.190911723633607       2.492089356610516E-002  3.482566471961959E-003  0.712800168305648      -3.916043632094141E-003  0.434483943998639       4.439307611387076E-002  3.425183069994327E-002  0.254292105160440       0.222616173937035       0.212055764103722     
  0.201486848037725       0.243722170658863       0.233166588512940       0.307046987227315       0.264855091196646       0.285957896145975       0.275410495659317       0.317598262976014       0.296497557564773       0.328143302614714       0.349214168611593       0.370266559019863       0.401846311518754       0.443894023964205       0.464904722017734       0.422872299010677     
  0.380798437564257       0.359739997446581       0.810046286868224       0.338681953349967       5.665999765789221E-002  0.973280764303746       0.496402163458656       0.585290163723692       0.459271562257898       0.148818328092311       0.407730004079502       0.804417923212391       0.668402147480122      -2.037537204881724E-003  0.397559368873041       0.161093415302258     
  0.853785892156515       0.219030703840057       0.134659770656304      -9.325081610105786E-003  8.426773476088783E-003  0.908362672655984       4.455026299082816E-002  0.515936130732155       0.229457261066788       3.032987257263771E-003  0.143252547875819       0.126201348398984       0.543951061970664       0.952591863444858       0.367638163991205      -6.248453581970881E-003
  0.386448698784056       0.958135200223337       7.686765538447929E-003  0.946949838550448        1.00550983121622       0.375872833828303       0.785653069484565       0.659851437848251       0.913776208104625       0.935829730748746       0.902844929156257       0.575963653910831       0.407571158133813       0.512917674552573       0.649372102430714       0.397014705513775     
  0.291169827336199       0.775146263965075       2.463763314285139E-002  4.606784689517932E-002  8.175921519033509E-004  0.184806390568162       5.685296196256203E-002  0.596950235174261       0.322986245843099       0.312378677372362       1.408899442758415E-002   1.00707696708618       0.686006281113659       0.868542847151297       0.444464238924194       0.920292320010699     
  0.924772216002813       0.579408346915329       0.382914453327633       0.375363212047542       0.390312544363403       0.418469051565056       0.425157115379063       0.485523841945665       0.651644117928626       0.704497807617930       0.786079823911373       0.978226885041145       0.985071923565597       0.299632553231568       0.308784623486402       0.189166731569493     
  0.170273743502471       0.179622133593849       0.152082488726058       1.985018152730531E-002  3.806536337983681E-002  2.574260499715069E-002  3.181963976054908E-002  0.198929312151244       0.208889210544153       0.317740933829698       0.326507144742899       0.240143027455676       0.250712249182699       0.280723861846959       0.290281610870201       0.260954651940893     
  0.270946714227462       0.351710738555192       0.359756746622972       0.335088382767013       0.343487940343324       0.882528303483158       0.895786771237589       0.533525495115817       0.993354344305185       0.962209427647897       0.970667850531918       0.931608622624272       0.942400537550924       0.821776568114630       0.838213932710017       0.724035229527803     
  0.592423460775537       0.606125589816736       0.620540231575433       0.635700695659516       0.501799984425617       0.474332282889214       0.450660435272979       0.456743035934482       0.462714682017940       0.468577084777806       5.788722812947884E-002  0.431716766804016       0.524226984462539       5.111622411673173E-002  7.913561799602559E-002  8.657851948415116E-002
  9.415382600248420E-002  0.101877612322187       6.483076874226890E-002  7.188890273656437E-002  0.109806472196485       0.117929159593058       0.744946391526525       0.766226618386478       0.495973558890293       0.490793164635853       0.555241513250778       0.567053443678771       0.479981705735292       0.508488873212208       0.481352048054676       0.470820238555843     
  1.561240543209413E-002  0.891977865036408       0.764648215036397      -1.031980340079723E-002  0.849041783587958       0.993450751394747       0.460287879453716       0.449749854370542       0.439205171135366       0.722712337001885       0.680807717677457       0.670329874866261       0.638891511792081       0.712235829399751       0.754157399918324       0.838413749871108     
  0.881170595012884       0.870415611684884       0.859707390072940       0.743671651486919       0.733190910730067       0.827817965443777       0.817248850475059       0.806700784944053       0.796169632404970       0.607440330900487       0.701760076233243       0.691283850267785       0.628405030327215       0.617920784017626       0.174150572847780       0.163508894771380     
  0.586456734497336       0.565462248750033       0.533940717620522       0.523430196942032       0.554953919843922       0.544447633770385       0.152833054793633       0.142140235834485       0.131491663366555       8.889535502674774E-002 -4.868474544966022E-003  0.120865491269025       0.110187474916716       9.952261777542720E-002  7.821595954778543E-002  6.754487111153064E-002
  0.248687085616940      -8.676834354033568E-003  0.438151624224369       3.514726305718765E-002  0.216797723074743       0.206143752500941       0.195466516270666       0.238047375434277       0.227426806496467       0.301767575724755       0.259333252477761       0.280574717166376       0.269962711496381       0.428659698767315       0.418117425688536       0.365299305367032     
  0.354734007114571       0.344163920266037       0.333581414183367       0.980688513922919       0.969380186072463       0.502403721340915       0.491882494985123       0.404682710418670       0.411645449448960       0.781629388894019       0.445192835253374       5.165125658393675E-002 -4.976538945942592E-003  0.285772590053592       0.178450844972221        1.00230511731632     
  0.370964584030174       0.309317718105938       0.398256274680573       0.659785851533069       0.164154936808189       0.234252274354362       0.572744713668983       0.818409921226479        1.00412560771115       0.368332189330520       0.490951415525188       0.480694911577733       6.886385299252386E-003  4.487932473140550E-002  0.961163625947390      -9.495929549631396E-003
  0.566538513312982       0.948818453729862       0.513845393798751       4.760064848812192E-002  0.242942105946743      -1.696088683479989E-002  0.253677032250268       0.650639844434367       0.800805722254977      -1.021695493684299E-002  0.865796295998855       8.519427994145364E-004  0.918177155010541       0.518445682414044       0.223203768624063       0.137236994760947     
  5.864214470706035E-002  0.128648960573858       0.548613628433308      -1.445010971313439E-002  4.392194357973796E-003  0.381592502047868       0.776656659446784       0.915525005932094       0.408121883014202       0.392216464369164       2.379900434916292E-002 -2.983626090776144E-003  0.629628142740096       0.317783846388431       0.677029950448627       0.932088342591602     
  0.327102043192781       0.383626798153282       0.425895687186005       0.497801487283895       0.695146322254004       0.714326780428233       0.173485247473281       0.182995902771110       0.145973236608563       0.154979610300267       1.297760925462270E-002  1.903612799196472E-002  3.817620570654567E-002  2.521664812724656E-002  3.156311503146948E-002  0.192720334010719     
  0.202659623274199       0.212783143457601       0.585456575959036       0.245468991348167       0.256134047206832       0.281131742022413       0.295485789336021       0.266334038622790       0.339965995951862       0.879958309418606       0.893380036368501       0.906105931697962       0.981651974235962       0.992049589657004       0.970515414616871       0.929625170892907     
  0.940565117074982       0.950976115945841       0.835072556993839       0.850849216391135       0.598848283870448       0.612945526678575       0.627775972688887       0.643378429099678       0.457465765839814       0.469295554367171       0.527135802385369       8.046519049167571E-002  8.807541265472875E-002  9.580621825594031E-002  6.575761298998220E-002  7.301463078727012E-002
  0.103713232579956       0.111831202059435       0.120118135212500       0.735518792437560       0.759169733290330       0.348296452705427       0.560572569006880       0.356446883357866       0.503790566161294       0.510722753001437       0.471610795123384       1.321301447202765E-002  0.893671501703992       0.755631299999089       0.450462235060109       0.724126287947985     
  0.671640302765499       0.850661712399003       0.872068288675021       0.739874448098285       0.829409004488425       0.808263388304487       0.792446173966483       0.608617023252276       0.703134980235679       0.687389102670677       0.167635731599173       0.587588181024287       0.529659745335961       0.545466381480019       0.156836023071650       0.145984739044010     
  0.135145027468158       0.124339387303287      -1.688666250790193E-002  0.113493429304151       0.102601569470610       9.172019180797024E-002  8.080130536967281E-002  6.982262781922165E-002  5.880043767825717E-002 -1.437819711297388E-002  0.435699022397264       0.537198181811680       3.596288090695195E-002  0.210775388344056       0.199993772580006       0.189224851199152     
  0.232224855356586       0.221514675203958       0.307104129060444       0.296432100415210       0.275102294062613       0.264403971289879       0.429293385464162       0.360345458384070       0.349729768736335       0.339100944338228       0.328452706862032       0.990614527460787       0.977035956618178       0.965688493197182       0.492744399446664       0.412386240255544     
   1.01550989084089       4.826044829073775E-003  0.799418607710346       0.583819811374047        1.01537013348899       0.942485154957160       0.972048359673860      -8.363495077082716E-003  2.072947639573876E-002 -2.556389512388098E-002   1.01378935310954       0.371380901665443       0.641615354704944       0.884732631744231       2.290611395076568E-002  3.661955517285585E-002
  0.825808741005073      -2.009746289481612E-002  4.814570003136433E-002  0.675364306783743       0.274692027259480       0.392106637891461       0.256709480772606       0.886051575000433       0.233652332280406       0.558557717788659      -2.394531695516062E-002  0.166295186637498      -5.265500960394340E-004   1.00384360429802       0.681090036295387       0.696878275857568     
  0.440675095545006       0.242477083298122       0.285657784716861       0.777208032478405      -1.466653507403405E-002  0.507732604868215       0.171552640362902       0.334697631332646        1.00312797270153       0.495786874816149      -1.922000776798459E-003 -1.564848984690649E-002  5.473282867152848E-002 -2.143503911162956E-002 -2.488137217694495E-002  0.523754777888480     
  6.252981793030928E-002  0.906496892034270       0.749477229683509       0.522880092425282       0.387404159318104      -8.825866670651765E-003  0.925759768736634       0.135146734413492       0.152879789132617       1.112599053210678E-002  3.430866402197549E-002  0.190934596099156       0.211185177487106       0.713374704861527       0.377201220885595       0.911635168781611     
  0.992089407458673       0.982273712124164       0.934694909476584       0.955891934075765       0.857566771813429       0.319338168675532       0.611281592484255       0.303484444320900       0.289327094962069       0.641706880238921       0.486677390943910       0.452482065348050       0.464513883077986       8.521468882231546E-002  7.366355986086322E-002  0.101069288466469     
  0.117694445635280       0.749666247108133       0.349341541105111       0.363605420233767       0.476114451605319       9.631752196764539E-003  0.863208985772262       0.461928323519188       0.662673452898618       0.767899371280663       0.733690357394105       0.841867251798182       0.820656490172558       0.802160039686038       0.786334869827565       0.715284726488718     
  0.620551252580184       0.599477861114573       0.578378909369097       0.557250900192348       0.538753294319202       0.144268175118162       0.122211883503607       9.998970127099967E-002  7.755112858773007E-002  0.441620922149156       0.431991625360638       0.539694617885153       0.199096042434003       0.182861978201200       0.220839762521470       0.307139750249712     
  0.264122266516122       0.419409845260667       0.400788474621271       0.350031048376770       0.328628854855765       0.987277049857861       0.973417462994826       0.959372992591299       0.504358786453232       0.483158597614750       0.406500927639113       0.420359498508217       0.430931082365318       0.918223810879765       0.198266908229170       0.567621321367370     
 -3.486136996712644E-002 -1.695130853955556E-002  0.936295995337400       0.493845843370599       0.897680745625529       0.532198251542750       0.318038672019671       2.179920426160410E-003  0.882111806357415       0.769786239464858       0.438606682440035        1.01347223695367       0.219840903669202       0.995661820790832       0.801162261895472       0.482880296264701     
 -1.980457315536217E-002 -1.261402110917825E-002  0.986326437995792       5.545819155565131E-003  0.976159443614363       8.536229139762516E-002  2.220658278601459E-002  0.653972913842696       0.632817320603702       0.173158696154242       0.876032709833089        1.02680649140041      -5.348708419872711E-003   1.02589330463998       4.047000972212882E-002 -3.169301388212507E-002
  1.000220150867864E-002  0.105617937201833       0.471992700564714      -7.030686345229397E-003   1.00477460958941       0.690881976210156       0.514914140850593      -2.638585257995197E-002  0.549463745497345       0.345141244477167       0.357165505270284        1.00395030502130      -2.399872104894978E-002 -3.001614706946877E-002 -3.436013711077369E-002 -3.572768416720500E-002
  7.541374146632948E-002  0.140714730119042       0.159209405468833       2.216664440995129E-002  3.660500557479929E-002  0.178299369615624       0.266213299032978       0.246195179811979       0.123247149222801       0.908149091804750       0.971424559869237       0.931530223150156       0.952687738555029       0.825817559988416       0.853093562118275       0.525298469661694     
  0.328920479891229       0.593412066634107       0.313307341825386       0.298250011859544       0.622137912452688       0.283805826108529       0.509680845787046       0.460211218876418       5.086349762845368E-002  6.377251508067362E-002  8.922334383402443E-002  0.688967115450560       0.727967671341020       0.544796929953689       0.372341244208888       0.854613159216558     
  0.452302420689992       0.673726942803678       0.653939825845615       0.760742082370846       0.743602812007970       0.833351246056981       0.813506445542698       0.796339932083743       0.779189593603408       0.726465682899994       0.708026925994094       0.611685033947908       0.590532447238525       0.569344182745738       0.153429843521085       0.130854742576310     
  0.108306134447324       6.205343809114450E-002  0.448809191626507       0.401032327706580       0.386530145411927       0.189786548985339       0.230939096621779       0.209052096603973       0.296328836929765       0.274707677521228       0.252846463182007       0.386418600532849       0.410888171271210       0.361155803092331       0.339683258145967       0.953213834845782     
  0.494971378913111       0.473653979888062       0.415285266631260       0.428020083694120        1.01894597967332      -4.510207108668819E-002   1.02232983345981       0.889089416906667       0.846322796124845       0.347475362898382       0.990799128202921        1.00319559753970       0.205038461549535       0.307234322395476        1.00453439601079       0.366850374882086     
  0.483622793483869       0.232046925929741       8.901148042078595E-003  0.932530552153400       0.909238505165873       0.109602339406550       0.441206250511223       0.382362737167794       0.867604383321332       1.780979237424128E-003  4.597384004752388E-002  0.938304000705124       0.421907093334321       0.180145576594131       0.257877722815302      -4.761783431787361E-002
 -2.729252876784141E-002  0.910172219053428       0.624280504765254       0.329165773974449       0.662201646137143       0.802181865525887      -2.581808188895491E-002  6.924777475398561E-002  2.374170131711676E-002  0.277037914331413        1.02749945219277        1.01007119883030      -1.795178726879992E-002   1.03970327418808      -5.120074638319909E-003 -1.508254804717101E-002
  0.533836828117229       0.506423839986358      -4.043401251138293E-002 -3.370944968468439E-002  0.301413339382552      -3.536899786972538E-002 -4.118198960259067E-002 -4.575406689938833E-002 -4.783567846252081E-002  0.145495896619543       0.127765749787523       2.306623118649295E-002  0.164457656704147       0.184077744211213       0.972116533152383       0.953476662946070     
  0.829331658828564       0.883261702683406       0.857161832085019       0.457088823415129       0.573472145716725       0.600012750467523       0.324155805058092       0.629775376485175       0.508042877085088       0.468607732558150       3.781376647392595E-002  5.145698383020260E-002  6.399968694358230E-002  7.694663406822751E-002  9.213327830586039E-002  0.748516433020871     
  0.699580281318772       0.549119488537980       0.396403429928897       0.442733783521014       0.693133650298173       0.666000647427675       0.645482219561288       0.763482561628391       0.825816513784530       0.798766813518823       0.737398437697085       0.719570503871601       0.603061939734198       0.581808158056357       0.561192527043516       0.161271731729340     
  0.139556071792504       0.116441108189570       9.310613638362003E-002  0.219032543077824       0.198214729941322       0.285373329980631       0.263407925157685       0.241203417206634       0.398166313697689       0.374240347395633       0.350897444904004       0.969285585227738       0.485687603825031       0.464226705549019       0.410848671747628       0.424443710455312     
  0.526130300298253       0.410085801948596        1.02418881674838      -5.675617853633765E-002  0.549861399777696      -4.229848712816524E-002 -6.073530040571361E-002   1.02221012887438       0.849107235121064       0.270666344807158      -4.008406841717113E-002  0.891342282050726       0.714676205006627      -2.372562393644458E-002  0.977270375270053       0.959759369363787     
   1.03867333006895       7.268709657658422E-003 -6.264082852863673E-002  0.665782279975424       0.296252207524018        1.03557001361158       0.917004579518842       0.786198348852652       0.499583052493588       0.112667107821462       9.385987171626055E-002  0.731040886153062       0.997514023369700       0.178423948493452       0.436896058346925       0.815055455011148     
  0.521980971066671       0.378407588158256        1.01286753799651       0.214985972672618       0.245770652879087       0.996872777182407       8.273114039086680E-005 -5.048940695787387E-002  0.318411656799517       0.453031337743555       5.188124506452722E-002  2.747736805112848E-002   1.02155374386190      -3.325634509324678E-002   1.04137279030558      -8.227163726592103E-003
 -2.089524067224582E-002  0.616046616342919       0.487118425467680      -4.996202568812219E-002 -5.596820052285298E-002 -6.071536547842903E-002 -6.301089405108060E-002  0.130695802603754       0.148752651442322       0.168144088325893       0.188553716158888       0.939548410753268       0.852792747295470       0.893470592080334       0.631557481146393       0.361087416498039     