 VARIABLES = "X" "Y" "RO" "U" "V" "P" "M"
 ZONE T="  0.000000000000000E+000 " N=        9944  E=       19548
 ZONETYPE=FETRIANGLE DATAPACKING=BLOCK
 VARLOCATION=([3-7]=CELLCENTERED)
  -19.9782054645671       -16.7460447536127       -13.5432470514743       -10.4462771124608       -7.39483127129757       -4.39431260318683       -1.43672854734527        1.47853524247441        4.40194279230921        7.38347804238703        10.4122197804982        13.5308676756442        16.7310607632789        20.0189460056259        20.0156650185539        20.0123451374732     
   20.0090067226427        20.0056742799471        20.0022854763303        19.9988742323503        19.9954939648514        19.9920871178897        19.9886881104951        19.9853470049941        19.9820070605281        19.9783478910574        16.7317203104092        13.4557822172063        10.1645634122701        6.87452312340184        3.53259687976399       0.170578499054329     
  -3.16443525887912       -6.48474521199279       -9.79114624567630       -13.0836966857758       -16.3754018560739       -20.0188035791356       -20.0155069002833       -20.0121812769038       -20.0088400757232       -20.0054989473046       -20.0021446450312       -19.9987763328347       -19.9953939522161       -19.9920253568386       -19.9886729196427       -19.9853365630757     
  -19.9819979716434       0.999775859897032       0.998259341986745       0.996747215104393       0.995245303808045       0.993698813295466       0.992091407167790       0.990418236762393       0.988683777691799       0.986887911172230       0.985028306611591       0.983090960651424       0.981084410089584       0.978992464134142       0.976827797670483       0.974586551677115     
  0.972261315562008       0.969849535591388       0.967350387379436       0.964761549800813       0.962083381028716       0.959310898448927       0.956436290024324       0.953448436324968       0.950337916726461       0.947133450510376       0.943813361348902       0.940345072655355       0.936770962019264       0.933078903781786       0.929247421057571       0.925241581944090     
  0.921092019688231       0.916793467765110       0.912332024150133       0.907698696803885       0.902887018975784       0.897890447263464       0.892696381555726       0.887292039970619       0.881669736433986       0.875821680896782       0.869748989710367       0.863444408525052       0.856899963894926       0.850105615530401       0.843052474663879       0.835732029149698     
  0.828137874428242       0.820261557107598       0.812094785980454       0.803629153900926       0.794855795117111       0.785767037185211       0.776353956657802       0.766492372163821       0.756271200926794       0.745679014566548       0.734705136424629       0.723342549980244       0.711578878955467       0.699401471500170       0.686803060242744       0.673771873209954     
  0.660293982800125       0.646361985616070       0.631962372267414       0.617078434831838       0.601699033273447       0.585803505241484       0.569379337371252       0.552411014824190       0.535487772291239       0.518527429369567       0.501497699548934       0.484398636806978       0.467229822973190       0.449341468147305       0.432049597147755       0.415352646585631     
  0.399248918908451       0.383722461117392       0.368688555804181       0.354128847650242       0.340039273673844       0.326428681563098       0.313282068170887       0.300600497338510       0.288384924228292       0.276617066117045       0.265271875123057       0.254301854335822       0.243694384839965       0.233437072731320       0.223522661114663       0.213943054815053     
  0.204686570191033       0.195741963292121       0.187104636096002       0.178758323889766       0.170693334744028       0.162892646992988       0.155349426977400       0.148057284905835       0.141010123636142       0.134201731189231       0.127625212402690       0.121275000038347       0.115145888638135       0.109232573806738       0.103530524913067       9.803537408451624E-002
  9.274294292789739E-002  8.764975725598893E-002  8.275209757216712E-002  7.804621644709131E-002  7.361037414288701E-002  6.933742615553333E-002  6.522905493291509E-002  6.128352463010877E-002  5.750097847932465E-002  5.385934853815505E-002  5.037031568691296E-002  4.703179395172044E-002  4.382602263692598E-002  4.072373338599288E-002  3.772179185838844E-002  3.479727774735837E-002
  3.195050204080874E-002  2.918651078083043E-002  2.650810587052459E-002  2.391921538031325E-002  2.142593181071813E-002  1.903587004231323E-002  1.686813245740955E-002  1.478029605891336E-002  1.279206181246518E-002  1.092235527892720E-002  9.196049321009356E-003  7.547885239660497E-003  5.940899984765975E-003  4.478211735226839E-003  3.150382646841315E-003  1.994922002722715E-003
  1.071616989910703E-003  4.489021749426799E-004  1.434803441379141E-004  7.471336765596526E-005  3.194529061298769E-004  9.221711456465905E-004  1.835251951342491E-003  2.970207319767959E-003  4.256081229211338E-003  5.638429402260131E-003  7.311717394337332E-003  9.074025029163857E-003  1.094035730827448E-002  1.282524306036789E-002  1.475786311381419E-002  1.678566118510667E-002
  1.895887851110166E-002  2.124415492603982E-002  2.365130110381002E-002  2.612111850692348E-002  2.866105375362942E-002  3.131484680806592E-002  3.412187459512254E-002  3.707966632331380E-002  4.017784428845546E-002  4.340449150203065E-002  4.674882393964273E-002  5.019903644442896E-002  5.375174184447467E-002  5.740680073629243E-002  6.115689744789658E-002  6.536130189906643E-002
  6.971140415742824E-002  7.420465604979860E-002  7.883795437231858E-002  8.354278082957679E-002  8.838815831507175E-002  9.340032991796696E-002  9.857724399801891E-002  0.103921022629635       0.109421984667446       0.115099566796398       0.120994738028651       0.127157202315031       0.133600014967123       0.140326422194726       0.147333005238940       0.154621049720504     
  0.162193711732272       0.170052070512157       0.178200136577102       0.186641447297941       0.195380507147165       0.204602468700112       0.214165801425093       0.224076298925273       0.234343077740083       0.244974461759808       0.255977640278121       0.267363024540126       0.279141427535822       0.291320420786779       0.303910877929253       0.316925178657961     
  0.330370875484161       0.344257946516680       0.358599873543318       0.373397009552829       0.388660072660459       0.404395216061809       0.420587996484254       0.437248808529089       0.454320271017449       0.471794161797988       0.489344276022239       0.506763777099724       0.524050939551437       0.541208157828627       0.558239152817507       0.574825819422571     
  0.590944570291011       0.606575716808008       0.621718186298806       0.636374056719375       0.650507413616617       0.664129637603077       0.677255985717247       0.689904333884356       0.702094941124837       0.713879119053417       0.725298629382902       0.736361464289732       0.747075860221841       0.757443949577308       0.767474083648970       0.777175024911612     
  0.786555522091942       0.795537570188362       0.804190226615010       0.812518280190048       0.820527593613635       0.828222788222875       0.835608177544859       0.842690986127557       0.849533793749963       0.856166497411818       0.862592182247771       0.868814630272840       0.874837707213243       0.880665401576536       0.886301001164745       0.891747614128827     
  0.897008686888791       0.902088569611566       0.906994994377356       0.911732505299915       0.916305603295376       0.920524931496401       0.924628386916553       0.928614086625031       0.932484917021465       0.936225926862450       0.939834108951585       0.943315827905877       0.946663325019277       0.949880218027457       0.952981863361229       0.955944155598642     
  0.958773757129706       0.961527124049018       0.964201204118734       0.966794160351640       0.969304742145292       0.971732373857331       0.974078235774332       0.976343376495497       0.978531117819684       0.980645371267203       0.982637914179724       0.984575991753075       0.986444922194665       0.988249461467703       0.989993582348187       0.991678585094882     
  0.993300021138414       0.994859165273640       0.996358536382828       0.997854075180745      -1.143056017322251E-003 -9.286568692414676E-004 -1.103433098368759E-003  0.996023392805014       0.997464344660048       0.996017686206932       0.997244427090861      -2.570459592339889E-003 -4.480643861222726E-004  0.995680045495891       0.996458886088536      -2.101246782379256E-003
  0.994634298966283      -2.447138797108118E-003  0.994133421361906       0.992474377202692      -7.634864315916779E-004  0.992916438906859       0.993898679949075      -2.506176782760083E-003 -4.036890451855132E-003  0.994985677433898       0.995145521833753       0.998884513903517      -1.475923569073961E-003  3.214231194278456E-004  0.991168953856570       0.989401517715072     
  0.987630188629736       0.992013096834769       0.998191232418151       0.993468461715936       0.991256364503354       1.136067118879137E-007 -2.182047032383221E-003 -4.140405561606766E-003  0.992901559283438       0.997438623407181        1.00053425339169       0.998175900081211        1.00121749287843      -3.400586735812702E-003  1.365146910823615E-003  0.996564653678527     
  0.996982920956963       0.999537301131617       0.989525442895784       0.990185856929479       0.988337308221811       0.986426377335441       0.990986823681282       0.992765199705909       1.082023713947232E-003 -8.892569691360062E-004  3.713113367572045E-003   1.00232189066260       0.990511461254558      -5.483034581994148E-003  2.649261694992691E-003  0.991022101554276     
  0.987638816541960       0.989030916166133       2.315779438349458E-003 -4.215524804818419E-003  0.991763790309514       0.999953267955258       0.999395378798548       4.140297192248998E-003  0.989193616703911      -2.622071870944128E-003 -3.859973216804912E-003   1.00323377193264        1.00129480200232       0.994910039878599       0.999041920397701        1.00111519478205     
  0.993805907044427       7.521189964949875E-003 -2.638136597247738E-003  0.999666867763808       0.998807021942199       5.800164257704014E-003  0.985670841924914       0.983682323556997       0.991916414624260       0.998044809621924       0.986926608656985      -5.962624553551362E-003  0.988333515556263       9.205583340303814E-003 -5.555074106272447E-004  6.499839064007266E-004
 -5.439866453975423E-003  0.984334787455793        1.00350578973294       0.987209858008496       0.985007279833138       0.997869227509674       0.995837752025155      -1.526095026110539E-003   1.00409955166865        1.00597731952864        1.00184148714736       0.984777964866379       0.982526834105722        1.00092923654373       0.994228957902732       0.986140434710973     
 -4.831757602159021E-003  5.796303832092321E-003  1.605069229151035E-003  7.576130199367108E-003 -7.193849319399149E-003 -1.849236214160654E-003 -1.226963593981765E-004  2.659436588387237E-004  2.124259390245184E-003  0.994792868895100        1.00267191867818       0.995648842540219       0.988336495832089       0.992617812875330       0.981959646744491       0.979804005980820     
  0.982788448504815       3.854389322931294E-003 -5.672435369200027E-003 -7.557281964208563E-003  0.977656218898513       0.989741928308311       5.298375427550145E-003  0.986060146182029       0.990946296116970       0.993756761939281        1.00043212249307       0.999655365341846       3.155272020762208E-003   1.00543853751497        1.00441222220962       0.996637609157349     
  0.998590097121466       6.348506139690529E-003   1.00008150088598        1.00238312150685       1.099583524007247E-002   1.00297673361867        1.00693428852651        1.00466993771050        1.00727026507202       0.990145993036568       0.993248263048117       0.989063610690987       1.593915627815242E-003  7.057472284772786E-003  0.990090915065932       0.985984163546420     
  0.983330693160914       8.994915005720657E-003 -6.191603771180318E-003 -4.019193523055870E-003 -2.571262974339799E-003 -3.866657297293075E-003  0.991427161705917       0.992543585505972       0.980670026059369       0.978476563702072       0.976098031804251       1.086543166514736E-002  0.992072195191408       0.996082536127664       0.995059785736793       0.997127678836713     
  4.901931035448819E-003  1.280921466871150E-002  0.987671210145834       0.987363554467388        1.00330161787580       0.989371185946906       8.932251124680445E-003  0.987411810494130      -4.245531655078349E-003 -8.115219338914853E-003  0.981463642572250       0.980128851525784       1.299675135937341E-002  0.981921700171421       0.977631817940764      -6.211334228887687E-003
  0.985421726181281      -7.594652964024718E-003  1.103453215240358E-002  0.994609922236448      -3.120148872336196E-003  3.676702458964530E-003  0.975344291076902       1.083987563857103E-002 -6.615457072958700E-004  8.287150008742391E-004  1.479864314137739E-002 -9.568376228394042E-004  6.811978070938632E-003  0.978747477217992      -6.367915220212309E-003 -9.084887220845762E-003
  8.829141205631040E-003   1.00564280800875        1.00853631028251       0.979563606825774       0.977112093340433       0.974000187452682       0.984647010929531       0.982504581481881       0.993789696311728      -1.703840152596498E-003  1.275280107717597E-002 -9.876444542265505E-003  0.976713697907791       0.974341906678528       1.511886198211528E-002  4.498790608879396E-003
  8.766646035144448E-003  1.087589555778024E-002  0.972982696844462       0.970590404488134      -8.350704100794634E-003 -1.047834251702257E-002 -1.117250931389108E-005  1.323158944894232E-002  0.983760485683192       0.980925932255953       0.982823304183989       0.980188523465549       0.981008550064797       0.980562145453807        1.00895358859050        1.00567543315296     
 -6.013246856859854E-003  1.013649770005791E-003   1.00219753714697        1.00143179828748       0.984830583576704        1.00432497174778        1.00397440088520       0.971839885120262       1.733191332496916E-002  0.981864842733344       0.983258915764699       1.117745692674730E-002  0.998714204216937       0.989603255235948       0.969257412681589      -3.686309126934611E-003
 -5.177465359148987E-003  0.985675379552380       0.996061793125960       1.547951726014913E-002  0.979509640439017       2.558553781850685E-003  1.691494060096014E-002  1.475623491347119E-002  0.973632145183100        1.00793224803723       0.978727810805332        1.00142907043151        1.00036175612467       0.978355251160489       0.997649794424465       1.354127283209875E-002
 -4.462506133610705E-003 -8.400138015860720E-003 -2.814849306464187E-003 -1.010314157205832E-002 -9.736784251259610E-003  3.451909818407260E-003  0.975757807825291       0.975903922217065       0.973318401470789       1.159103234930862E-002   1.00958419745013       0.970938497006623       0.968472546581954       6.621028715059120E-003  0.971829916682191       0.965985817195636     
  0.963748265638119       8.860524323552854E-003 -7.928951180343913E-003 -1.085300839182818E-002 -1.903493603290126E-003  1.917771788759891E-002  1.699483669934623E-002  0.996529556925727        1.00315783541879      -1.192369483443670E-002  0.983046941405365       0.979872662178706      -9.138153059889295E-004 -7.313201550263772E-003  1.462931153090940E-002   1.00207349228912     
 -1.065900308765633E-002 -1.298172499950447E-002  0.977694786367781       0.977210187223435       8.872876989561395E-003  9.471257200018060E-003  0.987638280395862        1.01105725237330       0.990543316305131       1.581323304948016E-002  1.932444252512376E-003  0.969622333821702       0.967130278597023       0.964495902833107       0.961437442453496       1.779899351343670E-002
  2.500813970501305E-004  0.970605496789073       1.391956055760330E-002  1.966260895925255E-002 -1.227724521900265E-002  0.993447897415222       0.994848835056244       0.997593194422285       6.549941525316321E-003 -6.518729147330195E-003   1.00627290624501        1.00623923083542       0.967756849253391      -5.802272183869162E-003 -4.882456195804010E-003  4.116682740295129E-003
  0.971006491047984       1.275963728091026E-002  0.999288805055244        1.00097988930251       2.154510500750469E-002  1.939207912119802E-002  1.706851143325735E-002 -4.016254382253726E-003  2.210230328130441E-002  0.975056465959014       0.972228891520672      -1.470888940858638E-002  0.988009145198712      -1.061365731202408E-002   1.01068850896074       1.587988038596639E-002
  9.280664305391697E-003  2.024345776680396E-002   1.00487830494695       0.968430770919699       0.965851947913902       0.996222187353101       0.962887420538641       2.392783254394382E-002  6.149581077532496E-003  2.186429619483223E-002   1.00886730694341       6.419210834160932E-003  3.750203142415445E-003  3.420241142066969E-003  1.821070467338845E-002  3.276595288080549E-003
 -8.908983856291621E-003  0.990512820444180       0.985516454860984       0.983494434440664       0.985913722240544       0.987952778965150       0.995227517992431       1.451187738925286E-002 -1.907472322890175E-003  0.966353642549477       2.085974272595628E-002  0.969705520035633       0.991093247446357       0.990109391300142       0.987758173258447       0.985552011317853     
  0.988442010675231       0.989379447309104      -1.230200142364932E-002 -3.086850592698402E-003   1.00041965475238       0.984625623353439       0.968455285903264       0.998164771156509       0.996947573501345       2.626906104092961E-002   1.00832439250880        1.00655165708852        1.01009222115302        1.01178979229828      -1.306612109666878E-002 -1.565452146713219E-002
 -8.501519346499720E-003  1.968125749856480E-002  1.717754885009223E-002  1.443466417915834E-002 -1.011441125612786E-002  0.990830621128354        1.00921741948679       6.181665093047579E-003  0.980626210540129      -7.264170281240676E-003  0.992517602703593       0.993221303561586       0.994372081863676       1.282174694127697E-003  0.972555760109372       1.241738903068162E-002
  1.198897103819303E-002  0.981083812895347       0.970939976908744       0.959578483365376       0.963210726053686       0.960321242753111        1.00434883397701       0.964859045804172       0.968047545156268       0.973918095929296       0.972243430661890       0.975897493646680       0.976810779028713       0.975200690792631       0.973572554406063       0.957332439868435     
  0.954046559242884      -5.398778799488667E-003 -1.285781581885485E-002   1.01229779734355        1.01350487237423       0.982661492480691       0.980099357489674       6.571119627757836E-003  6.623319745047703E-004  6.420354138592061E-004  3.119007190125670E-004 -6.117565784520420E-003   1.01159282585867        1.00729353880142      -1.049290499214831E-002  2.882455980722391E-002
  2.598475182491085E-002 -1.504794038304490E-002  9.112614366353269E-003 -1.553237705627039E-002 -1.845243680849569E-002  0.992257486150567       0.990358343053058      -1.260439609529809E-002 -1.535448075347394E-002  2.699521682961554E-002   1.01118687319137       1.174189696502153E-002  0.986748159643779       0.987336752400446        1.00324418673495        1.00924948090643     
   1.01211741854782       0.987959898686979       0.962023310991173       0.959070952780695       0.955834594723935       0.952296342149902      -3.076352727778597E-003  0.978037866832438       0.985185139494183       0.984600705443540       0.982891970182880        1.00941741764945       0.977777630813202      -1.236464297685406E-002  0.984359973357035       0.967370129304095     
  0.969283797002405       0.970632432824412       0.971803100991178        1.01130264230298        1.01188174043195      -8.894815148989760E-003 -1.799659913511285E-002  0.963621100434276       0.974043523712804       0.971114569901370       6.161512191204655E-003   1.00739211693061      -4.178336958236880E-003 -7.870831138546289E-003   1.01210882394804        1.00440265650052     
   1.00227141602206        1.01307961584644       2.251329133121602E-002  2.968364734223815E-002  2.695390363198483E-002 -9.239767641828076E-003  2.275465560033827E-002  2.455770466155138E-002  2.367232958042713E-002  0.978304799779716       0.976990773819332       3.176347830377736E-003  2.979426144840374E-003  0.999282342924328       9.742841010985404E-003   1.01417809351843     
  0.961081359152447       0.987839979393392       0.993643287348983       0.995494281856089       0.958004613697393      -1.217858417018891E-002 -1.514606726190498E-002  0.964881350810525       0.980497093094863      -1.530808640413647E-002  0.981462098905962       0.984681426223834       0.991062588310447        1.00671820769305       0.973132602199411       0.969298520114493     
  0.966224791727508       0.963931094315660       0.967914013714003        1.01354078179483      -7.346453796337774E-003 -1.091941950190781E-002  1.152371992793953E-002  2.410971623622712E-002  2.007275319737314E-002  1.729962780502831E-002  3.157473596865119E-002  2.913319786025181E-002  2.768813590674735E-002   1.00523179637365       1.434478185547924E-002 -1.595895191067214E-003
 -1.572023158250368E-003   1.01437544812423        1.01668587902750      -1.544853876051358E-002  0.954896813903999       0.951780706350659       3.262078630408179E-002  3.033050018310096E-002  2.806792023880737E-002 -1.245256712925766E-002   1.01406286258633        1.01775431145942       0.975572947656921       0.970116196234670      -5.258009679443957E-003  8.844093968980039E-003
  6.929793382119348E-003 -1.843977695990533E-002   1.01428958763829        1.01538387622793       2.500196512042009E-002  2.158249268845335E-002  0.966188522978456       0.967707608151374       0.969202780458071       0.969389255399923       0.997991956593877        1.00574493881454        1.00847574100242        1.00427163563385      -1.072327953670008E-002 -1.319754157430179E-002
 -1.536858465548794E-002  0.948596485616349      -1.065863227108991E-002 -1.407814981644816E-002  0.975474665996628       0.956384418793773        1.00927843323195        1.01211679644311       0.981406199991168      -1.401686738784660E-002  0.991506525844293      -1.773537557490040E-002 -2.103626372879319E-002  3.554709115921990E-002  3.335791879451237E-002  3.121254837928581E-002
  2.923178168117192E-002  0.972522812978074       0.975328454340822        1.00119099506929       0.999940758226068       2.339518061734198E-002   1.00739279546354       6.955550040087417E-005  5.950410756131432E-003  3.111999968345794E-003  0.966821715859775       0.969208360585278       0.978489380231322       2.476849713195829E-002  1.860508148837187E-002  1.594042407600872E-002
   1.00001156602652        1.00254903870194       0.999096752317230        1.00615606433996        1.01486649164239        1.01507065002674       1.299478645901660E-002   1.00380405428545       3.446956768421294E-002  3.158603208175335E-002  0.953332035775482       0.950074451162375        1.00563552615431       0.946505053866616       3.848881175228965E-002  3.624228113511043E-002
  3.411567804394673E-002   1.00921748545969       0.961131604389411       0.957645614628356       1.910145736639409E-002  0.962761468672302       0.985227380405737       0.977259842413884      -1.674547168295175E-002  0.965718543278955       2.041947962353441E-002  1.738983093319779E-002  0.964469095672657       0.966461707745797      -8.595978794513994E-005 -7.188721101136423E-003
 -1.418968975818484E-002  9.987920218167801E-003  0.964009929066397       0.961801228208918       0.968144235418404      -1.764953300923278E-002  8.540463501994760E-003  0.954849120075288       1.421700382279585E-002  2.240299459632023E-002  2.583278652999097E-002 -1.241770436953755E-002 -1.536558967420554E-002 -1.382148979738585E-002 -1.712639360240049E-002 -1.772859141171544E-002
  0.954864603198745       0.959039307853468      -2.173263235503096E-002  4.153362285298258E-002  3.911301055234220E-002  3.675708179341537E-002  3.496110390037415E-002  6.934685119709386E-003   1.01261267708132        1.01719283108574        1.01914188610981        1.00996885686667        1.01687299665664       0.971904767547543       0.975308774213386       0.960836758794166     
 -2.399602360027259E-003  3.760535764642055E-002  3.483930161191903E-002  3.181365886756677E-002  0.951995742432080       0.948224134920786       2.379475688863595E-002  0.996915566946334       4.384402854705231E-003  4.061294398166736E-003 -1.798643450822327E-002 -1.576326225025361E-002 -1.762449846679973E-002  0.962820275632348       0.958923639259129       0.978352282446242     
  5.836681761169762E-003  3.712524018107505E-003  1.329362030754020E-002  1.121756708148083E-002  0.943673831858773       0.948720285558275      -1.851042729725839E-002 -1.845388935009385E-002 -1.772627833535775E-002 -2.151115547635721E-002  0.965135923102039       4.473614968102137E-002  4.226767368208413E-002  3.931807477807543E-002  1.973894291124404E-002  0.954408030620528     
  0.957833146647755       0.960007022823698       0.950864909762144       0.956568038920608       0.953005033621824       0.949387485029809       7.858372192882613E-003 -1.226448885438931E-002  0.997942850427527       0.974604521102275       0.973393185698402      -2.031847959395646E-002 -2.030388416102003E-002  0.970904047455367       1.630555217604039E-002  1.460997871000763E-003
  0.981612591899594       0.984660273530506       1.679209958631828E-002  2.066464218405543E-002  1.746643936924830E-002  1.409839545630165E-002  4.084580211253766E-002  3.820179916555252E-002  0.978939060006523       0.973723357794430       1.013639563807072E-002  6.817714363270199E-003  0.945267339787410       0.941765150654251       9.902933228452279E-004  1.081346240307898E-002
   1.01445504286918       0.961035921534220       0.956910847191540      -1.925543660530041E-002 -2.148439807677855E-002  0.938163636363043       0.934510837149744       2.334260129231034E-002  0.947324077302538       3.534467891501749E-002  3.216422954818074E-002  2.714449227232065E-002  4.806173878544453E-002  4.565632574927546E-002  4.319422943286482E-002  4.111605184441362E-002
 -5.562494526927462E-004  0.987873025166193       0.991103951188048       0.955241684890377       3.797515621386074E-003 -1.933790140686202E-003   1.01441830396693       2.411961196242170E-002  4.413198487527552E-002  4.152912299147316E-002  3.901169612628287E-002  2.048847721790868E-002  7.021549140065943E-003  1.362509006523470E-002  0.943808262473075       0.940215492721004     
  0.942703548307468       0.987834095575262       0.994303566908556       0.994369791341654       0.945750307402466      -2.184224804502670E-003  0.958852317083482       0.951493157780468       0.947717301409715       0.988905095244126       0.992592121309359       0.938612725739156        1.01097497661649       0.991109129151630       0.934816114346622       0.956931819879625     
  0.954922398441912       0.952776927009242       0.971943991630557       0.945866234861579       0.957691147150769       1.026240443828101E-002  6.647880026704772E-003   1.01673249927974        1.01531983215726        1.01675506220885        1.01898509310760       8.772537310652515E-004 -1.358137860898475E-003  1.046006289358822E-002  4.749638802845795E-002  4.473866935548872E-002
  4.219273154126318E-002  4.071274847306096E-002  0.950582154749188       0.946469177790160       0.930813148041159       2.093117406329632E-002  1.759290159362767E-002  2.660656096029223E-002  0.989848804180102       0.978590502999955       0.982465624918110       0.986199069281505       0.975305708586097       0.975296349091190       5.149221921274506E-002  4.904853532402802E-002
  4.657559584174597E-002  4.419416278939256E-002  4.110305054984886E-002  0.953760286841631       0.956167288509442       1.408298225361037E-002  1.734700741112806E-002  0.961729430462440       0.993520645381145       0.964255416452099       0.960230276002917       0.966811064806132       0.940226960414821       0.998384564572199        1.00138133967758       0.994505719258073     
  0.942417309375362       0.938722261050742        1.00220226607720       0.948951116420661       1.399090519093473E-002   1.01789723741792       2.822436282917125E-002  3.221217181177670E-003  0.936458707817500       0.952894094515808        1.00062601685004        1.00337937331477        1.00650589363577       0.967710106607051       0.945073262153759       0.949778389562514     
  0.945215345988631       6.452558704112334E-003  5.101530672994178E-002  4.811065385456161E-002  4.491922663202601E-002 -9.321060309638366E-003 -1.240601235782890E-002 -1.580994870814406E-002 -5.618126597932628E-003 -7.978771553239688E-003 -3.684380707127839E-003  0.987695322281220       0.979740467948094       0.999723914487304       0.944523126569107       0.936821122350678     
  0.932805392296027       2.465357011641219E-002  2.857338354275408E-002  2.444976628658680E-002  0.997199691501968       0.998542700061828       0.991073552652076        1.01827467265372        1.02034006687547       0.990665899847768       0.996182310355101       0.997306923332240       0.994441463108981       0.984473220161676       0.963357840323718       1.041714476534180E-002
  6.574034699651601E-003  0.934671596425700       0.950983800137025       0.948649521721462       3.210899777446170E-002  3.101203537709147E-002  2.902790926864867E-002  0.942235321616857       0.947580961423549       0.944167005427709       5.505108536236766E-002  5.253069638991200E-002  4.992387029107236E-002  0.983540533163288       0.987093527507406       0.987593661449911     