 VARIABLES = "X" "Y" "RO" "U" "V" "P" "M"
 ZONE T="  0.000000000000000E+000 " N=        9944  E=       19548
 ZONETYPE=FETRIANGLE DATAPACKING=BLOCK
 VARLOCATION=([3-7]=CELLCENTERED)
  -19.9782054645671       -16.7460447536127       -13.5432470514743       -10.4462771124608       -7.39483127129757       -4.39431260318683       -1.43672854734527        1.47853524247441        4.40194279230921        7.38347804238703        10.4122197804982        13.5308676756442        16.7310607632789        20.0189460056259        20.0156650185539        20.0123451374732     
   20.0090067226427        20.0056742799471        20.0022854763303        19.9988742323503        19.9954939648514        19.9920871178897        19.9886881104951        19.9853470049941        19.9820070605281        19.9783478910574        16.7317203104092        13.4557822172063        10.1645634122701        6.87452312340184        3.53259687976399       0.170578499054329     
  -3.16443525887912       -6.48474521199279       -9.79114624567630       -13.0836966857758       -16.3754018560739       -20.0188035791356       -20.0155069002833       -20.0121812769038       -20.0088400757232       -20.0054989473046       -20.0021446450312       -19.9987763328347       -19.9953939522161       -19.9920253568386       -19.9886729196427       -19.9853365630757     
  -19.9819979716434       0.999277689488145       0.997758023997027       0.996242863113987       0.994738039826274       0.993188654599215       0.991578348882966       0.989902275589088       0.988164928125389       0.986366196655254       0.984503755744998       0.982563590651412       0.980554260427207       0.978459561641524       0.976292195076664       0.974048304167144     
  0.971720476870083       0.969306163675354       0.966804545442715       0.964213303839602       0.961532801325047       0.958758054007890       0.955881246321766       0.952891253390905       0.949778651167046       0.946572179129499       0.943250147156157       0.939779962120064       0.936204026413952       0.932510208248880       0.928677022755640       0.924669528154954     
  0.920518377222879       0.916218308566432       0.911755425094241       0.907120744880328       0.902307815438229       0.897310111069094       0.892115051929134       0.886709880971633       0.881086942121374       0.875238479057969       0.869165645258342       0.862861225005049       0.856317285492882       0.849523828660453       0.842472008510730       0.835153355076042     
  0.827561503580097       0.819688037856398       0.811524699790249       0.803063110121989       0.794294424868358       0.785210985257543       0.775803873697327       0.765948985960585       0.755735166265108       0.745150962791036       0.734185662191197       0.722832194632928       0.711078120329472       0.698910709226735       0.686322595841780       0.673301898120370     
  0.659834564437471       0.645913047094523       0.631523682991784       0.616649599471719       0.601279476694261       0.585392469408832       0.568975870764453       0.552013972948747       0.535095672340488       0.518138785677065       0.501111016194365       0.484012420968806       0.466842608489114       0.448951720665451       0.431656044955242       0.414954257981584     
  0.398844890305829       0.383312195057491       0.368271608377188       0.353704931923035       0.339608249563534       0.325990546884373       0.312836930559868       0.300148567094591       0.287926499436235       0.276152508371691       0.264801593846128       0.253826286287905       0.243214004163770       0.232952383788709       0.223034194083051       0.213451359181910     
  0.204192208397450       0.195245506859650       0.186606663283739       0.178259414423004       0.170194069145621       0.162393605229952       0.154851187983041       0.147560424883846       0.140515214549501       0.133709339575906       0.127135898810051       0.120789317822547       0.114664383020446       0.108755781317332       0.103058972217655       9.756957716125493E-002
  9.228340622023223E-002  8.719697207076903E-002  8.230654149411074E-002  7.760835259913849E-002  7.318049567073066E-002  6.891597981549469E-002  6.481646829756584E-002  6.088021060172499E-002  5.710732880520205E-002  5.347579459387559E-002  4.999724040409641E-002  4.666956434084551E-002  4.347504559308765E-002  4.038451759756154E-002  3.739487096391818E-002  3.448330736106955E-002
  3.165018147735756E-002  2.890056561004470E-002  2.623730264254872E-002  2.366436106618447E-002  2.118786460734554E-002  1.881544963933167E-002  1.666528807633474E-002  1.459608433574258E-002  1.262749429580217E-002  1.077836744551639E-002  9.073366403405799E-003  7.448235658462538E-003  5.867148384298099E-003  4.432271804297423E-003  3.135115892475433E-003  2.013606212660011E-003
  1.127369697705049E-003  5.430256343457770E-004  2.731720514246763E-004  2.407701706182430E-004  5.282298286732870E-004  1.166635979143012E-003  2.108789322511265E-003  3.266517121296269E-003  4.570034865199644E-003  5.965967238313333E-003  7.651077429152419E-003  9.422204328907207E-003  1.129505597737203E-002  1.318437980418663E-002  1.511985878843155E-002  1.714922791797898E-002
  1.932284944521299E-002  2.160741558773591E-002  2.401280702931086E-002  2.647995999061912E-002  2.901641645012727E-002  3.166592480189473E-002  3.446783370575435E-002  3.741970426971331E-002  4.051121473619994E-002  4.373051609114878E-002  4.706689546705788E-002  5.050862424605139E-002  5.405237142827555E-002  5.769804344434093E-002  6.143838675022673E-002  6.563176820245872E-002
  6.997042438011358E-002  7.445186159752881E-002  7.907303141667120E-002  8.376563783008321E-002  8.859856479841757E-002  9.359803043525078E-002  9.876203136327261E-002  0.104092726884431       0.109580500747358       0.115244784094253       0.121126495412419       0.127275278688267       0.133704220242022       0.140416621498152       0.147409133229958       0.154683100504258     
  0.162241735411032       0.170086177136894       0.178220490883941       0.186648269935643       0.195374073602984       0.204582859876732       0.214133392519384       0.224031531068141       0.234286456135849       0.244906559763760       0.255899103639136       0.267274571693133       0.279043853597844       0.291214604037154       0.303797781041214       0.316805851880682     
  0.330246461880010       0.344129681893533       0.358469085696929       0.373265117254820       0.388528576615012       0.404265688418314       0.420462058843484       0.437128111063489       0.454206435428592       0.471688751516770       0.489248566215814       0.506678714022763       0.523977220886706       0.541146227668956       0.558189197789925       0.574787541335839     
  0.590917413975110       0.606558907443865       0.621710778727928       0.636374973291202       0.650515460808223       0.664143568901362       0.677274531660762       0.689926226370954       0.702118932553138       0.713903997200287       0.725323215950494       0.736384618824116       0.747096489150709       0.757461015551346       0.767486610001201       0.777182098505375     
  0.786556294601978       0.795531330431509       0.804176297917140       0.812496059289058       0.820496547869136       0.828182454663054       0.835558161005090       0.842630952735079       0.849463380754838       0.856085342038614       0.862499957171493       0.868711041534970       0.874722493334523       0.880538332895002       0.886161881243907       0.891596280617474     
  0.896845011441695       0.901912456341386       0.906806371429075       0.911531332425242       0.916091872099101       0.920299224567863       0.924390675438181       0.928364379958007       0.932223249417750       0.935952414398582       0.939548914916418       0.943019131763175       0.946355367740229       0.949561263169637       0.952652153414475       0.955604046588677     
  0.958423610251435       0.961167122961269       0.963831561898164       0.966415114000274       0.968916549033213       0.971335307637037       0.973672578208214       0.975929416153693       0.978109140029589       0.980215654368104       0.982200918328519       0.984131935370134       0.985994080526799       0.987792094620661       0.989529937408402       0.991208905095408     
  0.992824564827703       0.994378185872704       0.995872276731676       0.997362581054362      -9.991234851601052E-004 -8.175255662845972E-004 -9.259598039041985E-004  0.995517054846851       0.996960161821319       0.995510434584437       0.996759003060667      -2.416493719919121E-003 -3.711721135072642E-004  0.995199093985970       0.995978556714601      -2.006315775359242E-003
  0.994125538192444      -2.321352299928263E-003  0.993656910518386       0.992003488593378      -5.490424011972882E-004  0.992404578191264       0.993387813633676      -2.322722542672434E-003 -3.899182444590585E-003  0.994508493233096       0.994671455341908       0.998395355519139      -1.413939616365206E-003  3.630562644812548E-004  0.990654218355341       0.988884003367456     
  0.987109923412090       0.991499413087856       0.997707003662105       0.992996025575244       0.990791448696413       2.488457988536666E-004 -1.960199093030354E-003 -3.980673045798867E-003  0.992388764198812       0.996959637938362        1.00004327070856       0.997671799809774        1.00072227747805      -3.320582571909452E-003  1.372343770217677E-003  0.996092435001634     
  0.996475865985555       0.999036879792838       0.989064519787389       0.989669608297450       0.987818510764031       0.985904948974764       0.990520657343873       0.992299192075448       1.355861012812540E-003 -6.375854561464565E-004  4.023876978236371E-003   1.00183157052836       0.990052840169905      -5.337541208901897E-003  2.623943096583908E-003  0.990506848335700     
  0.987184903914971       0.988574247675305       2.610035604362668E-003 -4.028740945262062E-003  0.991249286122547       0.999451248555038       0.998912673817866       4.084507757036461E-003  0.988676237618252      -2.574127944004716E-003 -3.749144726107048E-003   1.00274085650645        1.00080887119078       0.994400011641689       0.998537653579813        1.00061346083643     
  0.993293967229143       7.411876162419153E-003 -2.401375883724736E-003  0.999180161273937       0.998330118076464       5.715767366009252E-003  0.985223883054861       0.983242425729975       0.991456845190046       0.997574378227631       0.986476720874126      -5.799168355177018E-003  0.987881201434395       9.076917732168425E-003 -5.270170046754665E-004  6.456643275813718E-004
 -5.343841958612338E-003  0.983810182469792        1.00301927654649       0.986689875425290       0.984484123983035       0.997362049056001       0.995328278374891      -1.510170947086622E-003   1.00360986484965        1.00549044767738        1.00134317948384       0.984335008010968       0.982091140458892        1.00044871305419       0.993762922045450       0.985694412162231     
 -4.766550094088040E-003  5.699530782782868E-003  1.897472394605457E-003  7.459034784094689E-003 -7.113268317951936E-003 -1.596101944763962E-003 -1.382215345686068E-004  5.394460244124883E-004  2.088230438541115E-003  0.994281694626803        1.00218900508454       0.995183464558569       0.987818146801423       0.992104153088807       0.981431318697598       0.979272957963059     
  0.982261750887116       3.787474009950486E-003 -5.547075901151257E-003 -7.416275715660409E-003  0.977122400065460       0.989288178465735       5.622296392379661E-003  0.985537764108366       0.990492000830771       0.993243752681030       0.999957563470087       0.999186926830435       3.463166058264282E-003   1.00494730346034        1.00391695332573       0.996128313797055     
  0.998082486292563       6.235292186143803E-003  0.999577216860765        1.00188163362778       1.084626582031953E-002   1.00249859985067        1.00644113150546        1.00418746451322        1.00678864918195       0.989629541895164       0.992788501218699       0.988613016961729       1.547169446861145E-003  7.392301372287584E-003  0.989574565975707       0.985462565338869     
  0.982805144836875       8.860698891710967E-003 -6.002864756335311E-003 -3.785007858517066E-003 -2.567372737197963E-003 -3.832411508972523E-003  0.990911594280421       0.992028699501872       0.980140859834231       0.977944822387553       0.975563312298918       1.121463012795188E-002  0.991617965581209       0.995571974528506       0.994547419819976       0.996663581159664     
  5.222550074355384E-003  1.316229713094360E-002  0.987222398891537       0.986917623690268        1.00280252393374       0.988853537267490       9.275440871734550E-003  0.986892028454771      -4.029972083061906E-003 -7.948224321001666E-003  0.980935746115356       0.979701701874541       1.282620681482852E-002  0.981487329215627       0.977213977636842      -6.000437345217218E-003
  0.984979732959952      -7.484275220920350E-003  1.087753632084487E-002  0.994150686039611      -2.866616439910145E-003  3.598174310387091E-003  0.974934288063148       1.118442325105613E-002 -3.883911322039794E-004  1.119326778442997E-003  1.515425136956472E-002 -9.830209707112050E-004  7.142984292150133E-003  0.978327001669556      -6.317845459942219E-003 -9.021266434874513E-003
  9.168249383328110E-003   1.00514565841133        1.00804152818354       0.979033973983120       0.976579764547106       0.973463396421013       0.984123595749113       0.981978540023080       0.993275468547927      -1.431624759605806E-003  1.310046814871198E-002 -9.752743863072195E-003  0.976299395141285       0.973935755380892       1.492907083931589E-002  4.816382392034201E-003
  8.624253240011809E-003  1.121744103559347E-002  0.972581177122457       0.970197529040787      -8.161645776087341E-003 -1.030928825730660E-002  2.773995808051848E-004  1.305411462748952E-002  0.983322035136639       0.980498315578664       0.982390796585205       0.979765379119510       0.980480734012049       0.980034214767674        1.00846859870175        1.00519754437398     
 -5.783861509912486E-003  9.562891934319851E-004   1.00172537065100        1.00096552638050       0.984394394659018        1.00382537936958        1.00347309939403       0.971442345680355       1.712438743243921E-002  0.981437872258457       0.982829107801931       1.101208151839310E-002  0.998251759610448       0.989153696713248       0.968868283396035      -3.693938329075785E-003
 -5.156602573394351E-003  0.985153546990818       0.995603709678281       1.528433335902446E-002  0.979089450538749       2.863857691084719E-003  1.727195089790858E-002  1.510604579678117E-002  0.973093917378407        1.00744295458950       0.978197900390943        1.00092502473462       0.999854967584394       0.977936816848604       0.997140026634795       1.335696146497144E-002
 -4.209800305645839E-003 -8.192597232188851E-003 -2.544384760650922E-003 -9.956632684320690E-003 -9.641099735913334E-003  3.360686974730359E-003  0.975221780619534       0.975493217071927       0.972916235487704       1.141687684287890E-002   1.00909309217145       0.970397155232635       0.967928817400737       6.948778869355278E-003  0.971290068083860       0.965439711346088     
  0.963200273752760       8.709128051115017E-003 -7.893963767408946E-003 -1.080673699113703E-002 -1.939942791333095E-003  1.953498681220125E-002  1.734566266873779E-002  0.996017946979422        1.00265391123977      -1.179128796279522E-002  0.982522076050925       0.979344214759920      -6.276379422539774E-004 -7.079834312838850E-003  1.497312417999794E-002   1.00156714462157     
 -1.046958418464130E-002 -1.281035411819426E-002  0.977279177993152       0.976798511930648       9.209069859782938E-003  9.804796759986868E-003  0.987195920942110        1.01056500638067       0.990095740423956       1.561401158833966E-002  2.235152779760777E-003  0.969080607883836       0.966586365330284       0.963949658556286       0.960888101215802       1.758715890541677E-002
  1.800652273495120E-004  0.970212090959866       1.373003657850058E-002  1.943782518988414E-002 -1.216607829874740E-002  0.992994498122047       0.994396431126633       0.997136495978544       6.874245609848772E-003 -6.510619886212804E-003   1.00577416596079        1.00573823076036       0.967373002371456      -5.550368785957135E-003 -4.901384674761806E-003  4.431238980608447E-003
  0.970466617155205       1.257481758862323E-002  0.998779836867209        1.00047149055887       2.190163420024841E-002  1.974313450177046E-002  1.741315881147250E-002 -3.748146001564718E-003  2.186063903719078E-002  0.974649754536934       0.971830924112634      -1.458089391341685E-002  0.987570140478145      -1.040761824620371E-002   1.01020097688527       1.567750951008007E-002
  9.120777910894225E-003  2.001445001224001E-002   1.00437462886064       0.967888875094702       0.965308194192918       0.995771206799551       0.962340941826002       2.428276812676164E-002  6.025471285992112E-003  2.221505911278234E-002   1.00836974818323       6.738450125193364E-003  4.061227570501274E-003  3.727359833563048E-003  1.799479813308052E-002  3.173205520173903E-003
 -8.673646916951067E-003  0.990069409958368       0.985081903560845       0.983065768907323       0.985480283609516       0.987516886560005       0.994714041224423       1.484907335843937E-002 -1.623968933020013E-003  0.965974576643333       2.062657097432043E-002  0.969165403454701       0.990576472687651       0.989592129362281       0.987238673986060       0.985030016926792     
  0.987922810021019       0.988860554379564      -1.222570863002672E-002 -3.133477819740714E-003  0.999959028681936       0.984198350082060       0.968069069272423       0.997653980106716       0.996434965449844       2.662172848503299E-002   1.00784690362202        1.00607753716924        1.00961131721347        1.01130597557275      -1.287597883464128E-002 -1.548020975997280E-002
 -8.282864172253476E-003  2.002640775882920E-002  1.751575524597443E-002  1.476518103692428E-002 -9.895065629547183E-003  0.990391253260342        1.00871784807237       6.046343334456887E-003  0.980204364675262      -7.013574760536136E-003  0.992068656359838       0.992774359799429       0.993928742359899       1.582160840723948E-003  0.972018364359719       1.276004578177136E-002
  1.232464050807727E-002  0.980664885102087       0.970401981116324       0.959028662963460       0.962844122644679       0.959964560115703        1.00387428456052       0.964486188334644       0.967507076442382       0.973383229324645       0.971707427157029       0.975364603211108       0.976279293435047       0.974667672168287       0.973038066151432       0.956986153453032     
  0.953711810435506      -5.133992024631594E-003 -1.265321895122893E-002   1.01180806397605        1.01301312224476       0.982136711984557       0.979571623119142       6.425359929570254E-003  5.763204495991534E-004  9.393475409686335E-004  6.066334898995227E-004 -6.147340254978004E-003   1.01109596813395        1.00679181870876      -1.025714265717593E-002  2.917333723672226E-002
  2.633049448053163E-002 -1.495384979761714E-002  9.437757186862693E-003 -1.534086016701236E-002 -1.827371487382393E-002  0.991741248517654       0.989839901979000      -1.245473754596722E-002 -1.520179740508347E-002  2.672606248236571E-002   1.01070986701989       1.207043928738696E-002  0.986226818771121       0.986815744350258        1.00278014298899        1.00877582433176     
   1.01164419724758       0.987439206221573       0.961659800487360       0.958717470034488       0.955491965557738       0.951965650878175      -2.795937724542440E-003  0.977627021880367       0.984662529878282       0.984077725973224       0.982367581412633        1.00891648282735       0.977247194618904      -1.214476078264781E-002  0.983836524896815       0.966828287548363     
  0.968745267629432       0.970095537040380       0.971267539525079        1.01080822863256        1.01138320187592      -8.646105407357642E-003 -1.788788045582172E-002  0.963252330724364       0.973641249319404       0.970720824836311       6.475799588090731E-003   1.00692195329948      -4.233096982937472E-003 -7.874603309963148E-003   1.01160879584028        1.00393276929585     
   1.00181268688397        1.01259924285414       2.285887081213344E-002  2.939820768479523E-002  2.668680063813898E-002 -9.254441717883760E-003  2.250936932485203E-002  2.430125318061767E-002  2.342327371233544E-002  0.977895435971314       0.976459546028122       3.480287255191086E-003  2.861188688940100E-003  0.998827312028941       9.576053378558684E-003   1.01368376695720     
  0.960720718873118       0.987409092578477       0.993127697903248       0.994979496141375       0.957452065532998      -1.194256258838148E-002 -1.507407815050982E-002  0.964338037106280       0.979969909013697      -1.510506176624350E-002  0.981046470032905       0.984260321589371       0.990628577804578        1.00621492720804       0.972733943138533       0.968909865058720     
  0.965847118002700       0.963561860226491       0.967530462371912        1.01305472021318      -7.386423397285579E-003 -1.091000859726357E-002  1.184600555347074E-002  2.446008260597620E-002  2.041132851916766E-002  1.763101822356808E-002  3.191912599486973E-002  2.947594448806023E-002  2.802217409482745E-002   1.00476975746884       1.466888133907104E-002 -1.663794379312406E-003
 -1.654724009778772E-003   1.01389240110260        1.01620138360400      -1.523460691938139E-002  0.954341947664091       0.951223665628105       3.232025865895381E-002  3.004324016632246E-002  2.779405958388818E-002 -1.245426562810599E-002   1.01356636990843        1.01726032322603       0.975167904264322       0.969727056750174      -5.319176424819457E-003  9.163211676135206E-003
  6.776944521869320E-003 -1.828460905417513E-002   1.01381329687052        1.01491118508621       2.474508373946417E-002  2.134528059669794E-002  0.965647525364115       0.967168594009894       0.968665208660980       0.968852278487542       0.997543018445802        1.00527852848952        1.00800980531453        1.00381493917371      -1.047600506832554E-002 -1.297122970003049E-002
 -1.514399772051091E-002  0.948037201488544      -1.068264360089942E-002 -1.409057017840347E-002  0.975071303381413       0.955831829124417        1.00877614043174        1.01161561173729       0.980879625659937      -1.399619673034606E-002  0.990988445080342      -1.765566644839859E-002 -2.094550544065588E-002  3.523365816054348E-002  3.305682562127364E-002  3.092281417286519E-002
  2.895231497773169E-002  0.972128178741775       0.974927741513454        1.00073775497900       0.999493634608222       2.373293751293069E-002   1.00693358793247       3.626949033938835E-004  6.260654071915349E-003  3.413897824851349E-003  0.966443858863521       0.968824338716428       0.978082189846364       2.451408509839306E-002  1.838504091541488E-002  1.573454878362606E-002
  0.999501518497748        1.00204088783153       0.998584852721148        1.00570095306422        1.01436887622354        1.01457142174119       1.280547259403851E-002   1.00329790614818       3.480853832800070E-002  3.192358842381542E-002  0.952777376741065       0.949517524935176        1.00512931524429       0.945945673601505       3.816356193177486E-002  3.592963783589957E-002
  3.381411911192360E-002   1.00876140949812       0.960584532446703       0.957095191788578       1.887738608299201E-002  0.962217298071291       0.984704108214683       0.976728960407128      -1.668710283316639E-002  0.965345297541837       2.075043081116289E-002  1.771432179049527E-002  0.963927408895443       0.965922197497101       2.046821263505394E-004 -6.928236446979227E-003
 -1.395266413101431E-002  9.814743344154813E-003  0.963641273730557       0.961439061837580       0.967765711142216      -1.751432519661041E-002  8.854506558700475E-003  0.954296351385138       1.453487360897817E-002  2.216097450755394E-002  2.557177546113316E-002 -1.238526724323954E-002 -1.532481871234127E-002 -1.376695474818853E-002 -1.709613053383687E-002 -1.752722563348093E-002
  0.954313296005371       0.958491737731978      -2.157425808465810E-002  4.119640358147095E-002  3.878964341139712E-002  3.644494890150797E-002  3.465866328210576E-002  6.775512572205367E-003   1.01214431305868        1.01671758832859        1.01866951411545        1.00949819896744        1.01640506024050       0.971514934851847       0.974911231795628       0.960291941992132     
 -2.114673652528405E-003  3.793804795894670E-002  3.517085511419879E-002  3.214292177838140E-002  0.951441373260904       0.947667489321743       2.412353408613022E-002  0.996472138543688       4.246624713124885E-003  3.919772404586356E-003 -1.794117809087080E-002 -1.575405798437972E-002 -1.762643459467268E-002  0.962277827125536       0.958378137672880       0.977822240543060     
  6.144448503719344E-003  4.012831835869877E-003  1.309950956607875E-002  1.153427715788603E-002  0.943114138120985       0.948403098269164      -1.830163753757046E-002 -1.823227989921789E-002 -1.753254404572953E-002 -2.132721862856999E-002  0.964595674524297       4.438700683490173E-002  4.193135127931954E-002  3.899630602639925E-002  1.951053814001979E-002  0.954069239721130     
  0.957483127830254       0.959649999505841       0.950538353008532       0.956221745365503       0.952670405128247       0.949064899595142       8.167853083189713E-003 -1.229387368617220E-002  0.997503803051004       0.974071040348038       0.972859346310232      -2.027919337389748E-002 -2.024216629274387E-002  0.970520512441844       1.609601496326457E-002  1.337893095249333E-003
  0.981200542080493       0.984243754528839       1.657813017886757E-002  2.098827024035681E-002  1.778419798233647E-002  1.440993962842381E-002  4.117174805651322E-002  3.852718332926775E-002  0.978533319187289       0.973335194431907       9.957194751083608E-003  6.652452565046424E-003  0.944961704404296       0.941470840881775       8.607363629709447E-004  1.112446873916871E-002
   1.01395389996580       0.960492685511258       0.956364679817256      -1.923672249130413E-002 -2.147809314742267E-002  0.937881013960216       0.934240070639443       2.309525105065090E-002  0.947009658572546       3.566897863058514E-002  3.248690304155784E-002  2.687750468230213E-002  4.770168894863577E-002  4.530857640693889E-002  4.285813652013491E-002  4.078947062114661E-002
 -2.692076100511915E-004  0.987447712665351       0.990675278960802       0.954899504895903       3.651106714086263E-003 -2.037567826256756E-003   1.01395433467266       2.444186000041272E-002  4.445099840604860E-002  4.184816028023467E-002  3.933010293972761E-002  2.025535889834335E-002  7.324801306460379E-003  1.342562625452264E-002  0.943504892814703       0.939923279360934     
  0.942141284005686       0.987413722850462       0.993866624049244       0.993938584080730       0.945189276484619      -2.302065411289586E-003  0.958498548043390       0.951162676258696       0.947398835386476       0.988384515997789       0.992074151359583       0.938048169259592        1.01051308158602       0.990685431447123       0.934249684661450       0.956383809026507     
  0.954373889382185       0.952227966464930       0.971409584006447       0.945554846013310       0.957341960504635       1.007686621100412E-002  6.475552488870136E-003   1.01625293306708        1.01483138678321        1.01626417080395        1.01849807689761       7.409668130016025E-004 -1.491255242861754E-003  1.076476111419428E-002  4.780799567506645E-002  4.505172293281120E-002
  4.250667951469131E-002  4.102276407972125E-002  0.950028300391696       0.945913157937984       0.930244774991514       2.124784563140513E-002  1.790397135226070E-002  2.693281907143482E-002  0.989328270505360       0.978061291847396       0.981939836817757       0.985676072688884       0.974773648267424       0.974764872451195       5.112179880249092E-002  4.869058518093419E-002
  4.622899432633107E-002  4.385770555938577E-002  4.078160509264515E-002  0.953422403700642       0.955822685132522       1.438808664599110E-002  1.712801498526405E-002  0.961367026045109       0.993002529889116       0.963887778237831       0.959874429656148       0.966438613937976       0.939664341711096       0.997871255201192        1.00086982635343       0.994079053788159     
  0.942115649156863       0.938432089294419        1.00175744259821       0.948397765986564       1.378562358864625E-002   1.01743455047932       2.854500900064737E-002  3.069685578951048E-003  0.936178416559140       0.952343036487856        1.00018908517708        1.00292757687814        1.00605543779336       0.967172283614692       0.944518038147388       0.949451485461569     
  0.944901975032345       6.749163672548474E-003  5.131855807944303E-002  4.841614314771470E-002  4.522683694773357E-002 -9.064964487218601E-003 -1.215964384579318E-002 -1.557212382426550E-002 -5.346446472666010E-003 -7.714153942528485E-003 -3.403767972271529E-003  0.987279853111602       0.979212579313048       0.999210481494249       0.944214226831887       0.936257075961738     
  0.932239487635190       2.496814561589360E-002  2.888422954169536E-002  2.419738588875435E-002  0.996767168690457       0.998113360464945       0.990654673456660        1.01777839252031        1.01986424942312       0.990145343019059       0.995666922999176       0.996791080065555       0.993923082270319       0.984061132173762       0.962816837019711       1.022493045709029E-002
  6.394296987178795E-003  0.934393723051185       0.950432590924851       0.948098003275357       3.181733356066647E-002  3.072655953014997E-002  2.875358290229009E-002  0.941676983207357       0.947027891036094       0.943612591266922       5.467057126934807E-002  5.216262774082285E-002  4.956809733106875E-002  0.983015500721567       0.986570720930795       0.987070971623515     