 VARIABLES = "X" "Y" "RO" "U" "V" "P" "M"
 ZONE T="  0.000000000000000E+000 " N=        9944  E=       19548
 ZONETYPE=FETRIANGLE DATAPACKING=BLOCK
 VARLOCATION=([3-7]=CELLCENTERED)
  -19.9782054645671       -16.7460447536127       -13.5432470514743       -10.4462771124608       -7.39483127129757       -4.39431260318683       -1.43672854734527        1.47853524247441        4.40194279230921        7.38347804238703        10.4122197804982        13.5308676756442        16.7310607632789        20.0189460056259        20.0156650185539        20.0123451374732     
   20.0090067226427        20.0056742799471        20.0022854763303        19.9988742323503        19.9954939648514        19.9920871178897        19.9886881104951        19.9853470049941        19.9820070605281        19.9783478910574        16.7317203104092        13.4557822172063        10.1645634122701        6.87452312340184        3.53259687976399       0.170578499054329     
  -3.16443525887912       -6.48474521199279       -9.79114624567630       -13.0836966857758       -16.3754018560739       -20.0188035791356       -20.0155069002833       -20.0121812769038       -20.0088400757232       -20.0054989473046       -20.0021446450312       -19.9987763328347       -19.9953939522161       -19.9920253568386       -19.9886729196427       -19.9853365630757     
  -19.9819979716434       0.999277689488128       0.997758023997009       0.996242863113969       0.994738039826256       0.993188654599197       0.991578348882948       0.989902275589070       0.988164928125371       0.986366196655236       0.984503755744979       0.982563590651394       0.980554260427188       0.978459561641506       0.976292195076646       0.974048304167126     
  0.971720476870065       0.969306163675335       0.966804545442696       0.964213303839583       0.961532801325028       0.958758054007871       0.955881246321747       0.952891253390886       0.949778651167026       0.946572179129480       0.943250147156137       0.939779962120045       0.936204026413933       0.932510208248861       0.928677022755620       0.924669528154935     
  0.920518377222860       0.916218308566412       0.911755425094221       0.907120744880309       0.902307815438209       0.897310111069074       0.892115051929115       0.886709880971614       0.881086942121355       0.875238479057950       0.869165645258322       0.862861225005030       0.856317285492863       0.849523828660434       0.842472008510711       0.835153355076023     
  0.827561503580078       0.819688037856379       0.811524699790230       0.803063110121971       0.794294424868340       0.785210985257525       0.775803873697309       0.765948985960567       0.755735166265091       0.745150962791019       0.734185662191180       0.722832194632911       0.711078120329456       0.698910709226719       0.686322595841765       0.673301898120355     
  0.659834564437456       0.645913047094508       0.631523682991770       0.616649599471705       0.601279476694247       0.585392469408819       0.568975870764441       0.552013972948735       0.535095672340476       0.518138785677052       0.501111016194353       0.484012420968794       0.466842608489102       0.448951720665439       0.431656044955230       0.414954257981572     
  0.398844890305817       0.383312195057479       0.368271608377175       0.353704931923023       0.339608249563522       0.325990546884360       0.312836930559855       0.300148567094578       0.287926499436222       0.276152508371678       0.264801593846115       0.253826286287892       0.243214004163757       0.232952383788696       0.223034194083038       0.213451359181897     
  0.204192208397436       0.195245506859637       0.186606663283725       0.178259414422991       0.170194069145608       0.162393605229939       0.154851187983028       0.147560424883832       0.140515214549488       0.133709339575893       0.127135898810038       0.120789317822534       0.114664383020433       0.108755781317320       0.103058972217643       9.756957716124279E-002
  9.228340622022031E-002  8.719697207075733E-002  8.230654149409924E-002  7.760835259912728E-002  7.318049567071967E-002  6.891597981548396E-002  6.481646829755537E-002  6.088021060171478E-002  5.710732880519216E-002  5.347579459386602E-002  4.999724040408712E-002  4.666956434083652E-002  4.347504559307902E-002  4.038451759755324E-002  3.739487096391022E-002  3.448330736106199E-002
  3.165018147735039E-002  2.890056561003795E-002  2.623730264254239E-002  2.366436106617862E-002  2.118786460734013E-002  1.881544963932676E-002  1.666528807633036E-002  1.459608433573871E-002  1.262749429579885E-002  1.077836744551366E-002  9.073366403403657E-003  7.448235658461028E-003  5.867148384297329E-003  4.432271804297420E-003  3.135115892476278E-003  2.013606212661824E-003
  1.127369697707865E-003  5.430256343496361E-004  2.731720514295350E-004  2.407701706240994E-004  5.282298286804144E-004  1.166635979151342E-003  2.108789322520770E-003  3.266517121306834E-003  4.570034865211158E-003  5.965967238325773E-003  7.651077429165791E-003  9.422204328921484E-003  1.129505597738715E-002  1.318437980420255E-002  1.511985878844825E-002  1.714922791799645E-002
  1.932284944523118E-002  2.160741558775488E-002  2.401280702933059E-002  2.647995999063960E-002  2.901641645014846E-002  3.166592480191665E-002  3.446783370577697E-002  3.741970426973667E-002  4.051121473622402E-002  4.373051609117357E-002  4.706689546708337E-002  5.050862424607759E-002  5.405237142830240E-002  5.769804344436847E-002  6.143838675025488E-002  6.563176820248755E-002
  6.997042438014303E-002  7.445186159755889E-002  7.907303141670187E-002  8.376563783011441E-002  8.859856479844928E-002  9.359803043528293E-002  9.876203136330519E-002  0.104092726884464       0.109580500747391       0.115244784094286       0.121126495412453       0.127275278688301       0.133704220242055       0.140416621498186       0.147409133229992       0.154683100504292     
  0.162241735411065       0.170086177136927       0.178220490883973       0.186648269935674       0.195374073603015       0.204582859876762       0.214133392519413       0.224031531068169       0.234286456135875       0.244906559763784       0.255899103639158       0.267274571693154       0.279043853597863       0.291214604037171       0.303797781041228       0.316805851880693     
  0.330246461880019       0.344129681893539       0.358469085696932       0.373265117254820       0.388528576615009       0.404265688418307       0.420462058843474       0.437128111063477       0.454206435428577       0.471688751516752       0.489248566215794       0.506678714022741       0.523977220886683       0.541146227668931       0.558189197789899       0.574787541335811     
  0.590917413975082       0.606558907443837       0.621710778727900       0.636374973291174       0.650515460808196       0.664143568901335       0.677274531660735       0.689926226370928       0.702118932553114       0.713903997200263       0.725323215950471       0.736384618824094       0.747096489150687       0.757461015551325       0.767486610001181       0.777182098505356     
  0.786556294601959       0.795531330431491       0.804176297917123       0.812496059289042       0.820496547869120       0.828182454663039       0.835558161005075       0.842630952735065       0.849463380754824       0.856085342038601       0.862499957171480       0.868711041534957       0.874722493334510       0.880538332894989       0.886161881243895       0.891596280617462     
  0.896845011441682       0.901912456341374       0.906806371429062       0.911531332425230       0.916091872099089       0.920299224567851       0.924390675438168       0.928364379957994       0.932223249417737       0.935952414398569       0.939548914916405       0.943019131763162       0.946355367740216       0.949561263169623       0.952652153414461       0.955604046588663     
  0.958423610251421       0.961167122961255       0.963831561898150       0.966415114000259       0.968916549033198       0.971335307637022       0.973672578208199       0.975929416153678       0.978109140029574       0.980215654368088       0.982200918328503       0.984131935370118       0.985994080526783       0.987792094620644       0.989529937408385       0.991208905095391     
  0.992824564827686       0.994378185872687       0.995872276731659       0.997362581054345      -9.991234851547304E-004 -8.175255662801653E-004 -9.259598038978108E-004  0.995517054846833       0.996960161821301       0.995510434584419       0.996759003060650      -2.416493719913280E-003 -3.711721135037956E-004  0.995199093985953       0.995978556714584      -2.006315775355172E-003
  0.994125538192426      -2.321352299923287E-003  0.993656910518369       0.992003488593361      -5.490424011897064E-004  0.992404578191246       0.993387813633658      -2.322722542665629E-003 -3.899182444585108E-003  0.994508493233079       0.994671455341891       0.998395355519122      -1.413939616362078E-003  3.630562644837433E-004  0.990654218355323       0.988884003367438     
  0.987109923412072       0.991499413087838       0.997707003662088       0.992996025575227       0.990791448696397       2.488457988625175E-004 -1.960199093022137E-003 -3.980673045792667E-003  0.992388764198794       0.996959637938345        1.00004327070854       0.997671799809756        1.00072227747803      -3.320582571905718E-003  1.372343770219201E-003  0.996092435001617     
  0.996475865985538       0.999036879792820       0.989064519787373       0.989669608297432       0.987818510764013       0.985904948974746       0.990520657343857       0.992299192075431       1.355861012822452E-003 -6.375854561371209E-004  4.023876978248225E-003   1.00183157052834       0.990052840169888      -5.337541208896063E-003  2.623943096584515E-003  0.990506848335682     
  0.987184903914955       0.988574247675288       2.610035604373567E-003 -4.028740945254890E-003  0.991249286122529       0.999451248555020       0.998912673817849       4.084507757036215E-003  0.988676237618233      -2.574127944001912E-003 -3.749144726102401E-003   1.00274085650643        1.00080887119076       0.994400011641671       0.998537653579796        1.00061346083641     
  0.993293967229125       7.411876162417401E-003 -2.401375883715749E-003  0.999180161273919       0.998330118076446       5.715767366008200E-003  0.985223883054845       0.983242425729959       0.991456845190030       0.997574378227614       0.986476720874110      -5.799168355170520E-003  0.987881201434378       9.076917732166134E-003 -5.270170046732885E-004  6.456643275826190E-004
 -5.343841958608025E-003  0.983810182469774        1.00301927654648       0.986689875425271       0.984484123983017       0.997362049055983       0.995328278374873      -1.510170947084739E-003   1.00360986484964        1.00549044767737        1.00134317948382       0.984335008010952       0.982091140458876        1.00044871305417       0.993762922045433       0.985694412162215     
 -4.766550094084644E-003  5.699530782781491E-003  1.897472394616713E-003  7.459034784092734E-003 -7.113268317947974E-003 -1.596101944754282E-003 -1.382215345676247E-004  5.394460244227689E-004  2.088230438541463E-003  0.994281694626785        1.00218900508452       0.995183464558552       0.987818146801405       0.992104153088789       0.981431318697580       0.979272957963041     
  0.982261750887098       3.787474009949958E-003 -5.547075901146051E-003 -7.416275715654555E-003  0.977122400065442       0.989288178465719       5.622296392392454E-003  0.985537764108348       0.990492000830755       0.993243752681012       0.999957563470070       0.999186926830418       3.463166058276502E-003   1.00494730346032        1.00391695332572       0.996128313797038     
  0.998082486292546       6.235292186141984E-003  0.999577216860748        1.00188163362776       1.084626582031665E-002   1.00249859985065        1.00644113150544        1.00418746451320        1.00678864918194       0.989629541895146       0.992788501218682       0.988613016961712       1.547169446861233E-003  7.392301372301311E-003  0.989574565975689       0.985462565338851     
  0.982805144836856       8.860698891708535E-003 -6.002864756327829E-003 -3.785007858507955E-003 -2.567372737196358E-003 -3.832411508970035E-003  0.990911594280403       0.992028699501854       0.980140859834213       0.977944822387534       0.975563312298900       1.121463012796733E-002  0.991617965581192       0.995571974528488       0.994547419819958       0.996663581159648     
  5.222550074368558E-003  1.316229713095978E-002  0.987222398891520       0.986917623690252        1.00280252393372       0.988853537267472       9.275440871749169E-003  0.986892028454753      -4.029972083053601E-003 -7.948224320994820E-003  0.980935746115338       0.979701701874525       1.282620681482505E-002  0.981487329215611       0.977213977636827      -6.000437345208808E-003
  0.984979732959936      -7.484275220915467E-003  1.087753632084180E-002  0.994150686039594      -2.866616439900104E-003  3.598174310386268E-003  0.974934288063133       1.118442325107189E-002 -3.883911321933318E-004  1.119326778454626E-003  1.515425136958162E-002 -9.830209707104697E-004  7.142984292164240E-003  0.978327001669540      -6.317845459939175E-003 -9.021266434870950E-003
  9.168249383343104E-003   1.00514565841131        1.00804152818352       0.979033973983101       0.976579764547087       0.973463396420994       0.984123595749095       0.981978540023062       0.993275468547909      -1.431624759594780E-003  1.310046814872836E-002 -9.752743863066713E-003  0.976299395141270       0.973935755380877       1.492907083931188E-002  4.816382392047766E-003
  8.624253240009169E-003  1.121744103560948E-002  0.972581177122442       0.970197529040772      -8.161645776079593E-003 -1.030928825729946E-002  2.773995808171876E-004  1.305411462748587E-002  0.983322035136623       0.980498315578648       0.982390796585189       0.979765379119495       0.980480734012030       0.980034214767656        1.00846859870173        1.00519754437396     
 -5.783861509903150E-003  9.562891934318213E-004   1.00172537065099        1.00096552638049       0.984394394659002        1.00382537936957        1.00347309939401       0.971442345680340       1.712438743243469E-002  0.981437872258442       0.982829107801915       1.101208151838980E-002  0.998251759610431       0.989153696713231       0.968868283396020      -3.693938329074443E-003
 -5.156602573392173E-003  0.985153546990800       0.995603709678265       1.528433335902030E-002  0.979089450538733       2.863857691097321E-003  1.727195089792622E-002  1.510604579679826E-002  0.973093917378389        1.00744295458949       0.978197900390924        1.00092502473461       0.999854967584376       0.977936816848588       0.997140026634777       1.335696146496760E-002
 -4.209800305635419E-003 -8.192597232180262E-003 -2.544384760639539E-003 -9.956632684314409E-003 -9.641099735908770E-003  3.360686974729220E-003  0.975221780619516       0.975493217071911       0.972916235487689       1.141687684287537E-002   1.00909309217144       0.970397155232616       0.967928817400718       6.948778869369779E-003  0.971290068083841       0.965439711346069     
  0.963200273752741       8.709128051112146E-003 -7.893963767406255E-003 -1.080673699113388E-002 -1.939942791332591E-003  1.953498681221966E-002  1.734566266875564E-002  0.996017946979404        1.00265391123975      -1.179128796278933E-002  0.982522076050907       0.979344214759902      -6.276379422416092E-004 -7.079834312829013E-003  1.497312418001525E-002   1.00156714462155     
 -1.046958418463330E-002 -1.281035411818682E-002  0.977279177993136       0.976798511930633       9.209069859798330E-003  9.804796760002758E-003  0.987195920942094        1.01056500638065       0.990095740423940       1.561401158833540E-002  2.235152779773765E-003  0.969080607883817       0.966586365330265       0.963949658556267       0.960888101215783       1.758715890541214E-002
  1.800652273490526E-004  0.970212090959851       1.373003657849661E-002  1.943782518987913E-002 -1.216607829874220E-002  0.992994498122031       0.994396431126616       0.997136495978527       6.874245609863663E-003 -6.510619886210920E-003   1.00577416596077        1.00573823076034       0.967373002371441      -5.550368785946362E-003 -4.901384674760723E-003  4.431238980622407E-003
  0.970466617155187       1.257481758861941E-002  0.998779836867191        1.00047149055885       2.190163420026757E-002  1.974313450178906E-002  1.741315881149056E-002 -3.748146001553004E-003  2.186063903718529E-002  0.974649754536918       0.971830924112619      -1.458089391341094E-002  0.987570140478129      -1.040761824619495E-002   1.01020097688525       1.567750951007573E-002
  9.120777910891135E-003  2.001445001223489E-002   1.00437462886062       0.967888875094683       0.965308194192899       0.995771206799534       0.962340941825983       2.428276812678148E-002  6.025471285990027E-003  2.221505911280167E-002   1.00836974818322       6.738450125208649E-003  4.061227570515644E-003  3.727359833577841E-003  1.799479813307579E-002  3.173205520172461E-003
 -8.673646916940820E-003  0.990069409958351       0.985081903560829       0.983065768907308       0.985480283609499       0.987516886559989       0.994714041224405       1.484907335845688E-002 -1.623968933007266E-003  0.965974576643319       2.062657097431520E-002  0.969165403454682       0.990576472687633       0.989592129362263       0.987238673986042       0.985030016926774     
  0.987922810021001       0.988860554379546      -1.222570863002260E-002 -3.133477819740440E-003  0.999959028681919       0.984198350082044       0.968069069272408       0.997653980106698       0.996434965449826       2.662172848505345E-002   1.00784690362200        1.00607753716922        1.00961131721345        1.01130597557273      -1.287597883463302E-002 -1.548020975996503E-002
 -8.282864172244307E-003  2.002640775884800E-002  1.751575524599267E-002  1.476518103694198E-002 -9.895065629537776E-003  0.990391253260326        1.00871784807236       6.046343334454511E-003  0.980204364675246      -7.013574760525030E-003  0.992068656359822       0.992774359799413       0.993928742359883       1.582160840737336E-003  0.972018364359700       1.276004578178791E-002
  1.232464050809404E-002  0.980664885102071       0.970401981116306       0.959028662963441       0.962844122644664       0.959964560115689        1.00387428456051       0.964486188334629       0.967507076442363       0.973383229324626       0.971707427157011       0.975364603211090       0.976279293435028       0.974667672168269       0.973038066151413       0.956986153453018     
  0.953711810435492      -5.133992024619577E-003 -1.265321895121997E-002   1.01180806397603        1.01301312224474       0.982136711984539       0.979571623119124       6.425359929567608E-003  5.763204495982578E-004  9.393475409824842E-004  6.066334899138434E-004 -6.147340254977179E-003   1.01109596813394        1.00679181870875      -1.025714265716532E-002  2.917333723674350E-002
  2.633049448055207E-002 -1.495384979761234E-002  9.437757186878880E-003 -1.534086016700381E-002 -1.827371487381577E-002  0.991741248517636       0.989839901978982      -1.245473754596066E-002 -1.520179740507660E-002  2.672606248235944E-002   1.01070986701987       1.207043928740392E-002  0.986226818771103       0.986815744350240        1.00278014298897        1.00877582433174     
   1.01164419724756       0.987439206221555       0.961659800487346       0.958717470034473       0.955491965557724       0.951965650878161      -2.795937724529190E-003  0.977627021880351       0.984662529878263       0.984077725973206       0.982367581412615        1.00891648282733       0.977247194618886      -1.214476078263802E-002  0.983836524896797       0.966828287548345     
  0.968745267629414       0.970095537040362       0.971267539525061        1.01080822863254        1.01138320187590      -8.646105407346241E-003 -1.788788045581629E-002  0.963252330724349       0.973641249319389       0.970720824836295       6.475799588106386E-003   1.00692195329946      -4.233096982937391E-003 -7.874603309961543E-003   1.01160879584027        1.00393276929583     
   1.00181268688395        1.01259924285412       2.285887081215297E-002  2.939820768478850E-002  2.668680063813277E-002 -9.254441717882415E-003  2.250936932484644E-002  2.430125318061176E-002  2.342327371232975E-002  0.977895435971299       0.976459546028104       3.480287255206270E-003  2.861188688938266E-003  0.998827312028925       9.576053378555419E-003   1.01368376695719     
  0.960720718873104       0.987409092578461       0.993127697903230       0.994979496141357       0.957452065532980      -1.194256258837057E-002 -1.507407815050572E-002  0.964338037106261       0.979969909013679      -1.510506176623436E-002  0.981046470032889       0.984260321589355       0.990628577804562        1.00621492720803       0.972733943138518       0.968909865058705     
  0.965847118002685       0.963561860226476       0.967530462371897        1.01305472021316      -7.386423397285003E-003 -1.091000859726149E-002  1.184600555348789E-002  2.446008260599608E-002  2.041132851918664E-002  1.763101822358652E-002  3.191912599489166E-002  2.947594448808161E-002  2.802217409484847E-002   1.00476975746882       1.466888133908893E-002 -1.663794379312753E-003
 -1.654724009779516E-003   1.01389240110258        1.01620138360398      -1.523460691937163E-002  0.954341947664072       0.951223665628086       3.232025865894663E-002  3.004324016631567E-002  2.779405958388179E-002 -1.245426562810418E-002   1.01356636990842        1.01726032322601       0.975167904264307       0.969727056750159      -5.319176424819522E-003  9.163211676151632E-003
  6.776944521866489E-003 -1.828460905416796E-002   1.01381329687050        1.01491118508619       2.474508373945826E-002  2.134528059669261E-002  0.965647525364096       0.967168594009875       0.968665208660961       0.968852278487524       0.997543018445786        1.00527852848950        1.00800980531451        1.00381493917369      -1.047600506831385E-002 -1.297122970002018E-002
 -1.514399772050048E-002  0.948037201488525      -1.068264360089829E-002 -1.409057017840193E-002  0.975071303381398       0.955831829124398        1.00877614043172        1.01161561173728       0.980879625659919      -1.399619673034355E-002  0.990988445080324      -1.765566644839415E-002 -2.094550544065090E-002  3.523365816053593E-002  3.305682562126645E-002  3.092281417285834E-002
  2.895231497772514E-002  0.972128178741760       0.974927741513439        1.00073775497898       0.999493634608206       2.373293751295046E-002   1.00693358793246       3.626949034085804E-004  6.260654071931316E-003  3.413897824866915E-003  0.966443858863506       0.968824338716413       0.978082189846349       2.451408509838723E-002  1.838504091541004E-002  1.573454878362164E-002
  0.999501518497730        1.00204088783151       0.998584852721130        1.00570095306420        1.01436887622352        1.01457142174117       1.280547259403459E-002   1.00329790614816       3.480853832802336E-002  3.192358842383738E-002  0.952777376741046       0.949517524935157        1.00512931524427       0.945945673601486       3.816356193176697E-002  3.592963783589205E-002
  3.381411911191640E-002   1.00876140949811       0.960584532446684       0.957095191788559       1.887738608298706E-002  0.962217298071272       0.984704108214665       0.976728960407110      -1.668710283316267E-002  0.965345297541823       2.075043081118209E-002  1.771432179051393E-002  0.963927408895424       0.965922197497083       2.046821263655883E-004 -6.928236446966960E-003
 -1.395266413100303E-002  9.814743344151385E-003  0.963641273730543       0.961439061837566       0.967765711142201      -1.751432519660407E-002  8.854506558717085E-003  0.954296351385119       1.453487360899629E-002  2.216097450754848E-002  2.557177546112714E-002 -1.238526724323674E-002 -1.532481871233812E-002 -1.376695474818501E-002 -1.709613053383400E-002 -1.752722563347172E-002
  0.954313296005352       0.958491737731959      -2.157425808465052E-002  4.119640358146271E-002  3.878964341138928E-002  3.644494890150046E-002  3.465866328209854E-002  6.775512572202373E-003   1.01214431305866        1.01671758832857        1.01866951411543        1.00949819896742        1.01640506024049       0.971514934851832       0.974911231795613       0.960291941992113     
 -2.114673652514431E-003  3.793804795897011E-002  3.517085511422151E-002  3.214292177840337E-002  0.951441373260885       0.947667489321724       2.412353408615030E-002  0.996472138543671       4.246624713122498E-003  3.919772404583881E-003 -1.794117809086744E-002 -1.575405798437751E-002 -1.762643459467074E-002  0.962277827125517       0.958378137672861       0.977822240543042     
  6.144448503735547E-003  4.012831835885928E-003  1.309950956607471E-002  1.153427715790337E-002  0.943114138120966       0.948403098269151      -1.830163753756070E-002 -1.823227989920717E-002 -1.753254404572071E-002 -2.132721862856129E-002  0.964595674524278       4.438700683489314E-002  4.193135127931132E-002  3.899630602639147E-002  1.951053814001474E-002  0.954069239721116     
  0.957483127830240       0.959649999505826       0.950538353008519       0.956221745365488       0.952670405128233       0.949064899595128       8.167853083206491E-003 -1.229387368617118E-002  0.997503803050988       0.974071040348020       0.972859346310214      -2.027919337389424E-002 -2.024216629273991E-002  0.970520512441829       1.609601496326006E-002  1.337893095247400E-003
  0.981200542080477       0.984243754528823       1.657813017886296E-002  2.098827024037627E-002  1.778419798235538E-002  1.440993962844221E-002  4.117174805653735E-002  3.852718332929124E-002  0.978533319187274       0.973335194431892       9.957194751080025E-003  6.652452565043275E-003  0.944961704404283       0.941470840881762       8.607363629688517E-004  1.112446873918630E-002
   1.01395389996579       0.960492685511240       0.956364679817237      -1.923672249130155E-002 -2.147809314742040E-002  0.937881013960203       0.934240070639430       2.309525105064529E-002  0.947009658572532       3.566897863060793E-002  3.248690304157983E-002  2.687750468229596E-002  4.770168894862687E-002  4.530857640693034E-002  4.285813652012670E-002  4.078947062113869E-002
 -2.692076100358667E-004  0.987447712665335       0.990675278960786       0.954899504895889       3.651106714083670E-003 -2.037567826258079E-003   1.01395433467264       2.444186000043300E-002  4.445099840607340E-002  4.184816028025886E-002  3.933010293975124E-002  2.025535889833817E-002  7.324801306477413E-003  1.342562625451847E-002  0.943504892814690       0.939923279360921     
  0.942141284005667       0.987413722850446       0.993866624049228       0.993938584080714       0.945189276484600      -2.302065411291296E-003  0.958498548043376       0.951162676258682       0.947398835386462       0.988384515997770       0.992074151359565       0.938048169259573        1.01051308158600       0.990685431447107       0.934249684661431       0.956383809026488     
  0.954373889382167       0.952227966464912       0.971409584006429       0.945554846013296       0.957341960504621       1.007686621100038E-002  6.475552488866803E-003   1.01625293306707        1.01483138678319        1.01626417080393        1.01849807689759       7.409668129993300E-004 -1.491255242863893E-003  1.076476111421216E-002  4.780799567509190E-002  4.505172293283597E-002
  4.250667951471557E-002  4.102276407974513E-002  0.950028300391677       0.945913157937965       0.930244774991495       2.124784563142483E-002  1.790397135227989E-002  2.693281907145562E-002  0.989328270505342       0.978061291847378       0.981939836817738       0.985676072688866       0.974773648267406       0.974764872451177       5.112179880248172E-002  4.869058518092534E-002
  4.622899432632255E-002  4.385770555937756E-002  4.078160509263739E-002  0.953422403700628       0.955822685132507       1.438808664600979E-002  1.712801498525930E-002  0.961367026045094       0.993002529889098       0.963887778237817       0.959874429656133       0.966438613937961       0.939664341711077       0.997871255201174        1.00086982635341       0.994079053788143     
  0.942115649156850       0.938432089294406        1.00175744259819       0.948397765986545       1.378562358864192E-002   1.01743455047930       2.854500900066852E-002  3.069685578948327E-003  0.936178416559127       0.952343036487837        1.00018908517707        1.00292757687812        1.00605543779334       0.967172283614674       0.944518038147369       0.949451485461555     
  0.944901975032331       6.749163672565816E-003  5.131855807946915E-002  4.841614314774011E-002  4.522683694775830E-002 -9.064964487206206E-003 -1.215964384578127E-002 -1.557212382425377E-002 -5.346446472652784E-003 -7.714153942515284E-003 -3.403767972257378E-003  0.987279853111586       0.979212579313030       0.999210481494231       0.944214226831873       0.936257075961718     
  0.932239487635171       2.496814561591407E-002  2.888422954171662E-002  2.419738588874861E-002  0.996767168690441       0.998113360464929       0.990654673456644        1.01777839252029        1.01986424942310       0.990145343019041       0.995666922999158       0.996791080065537       0.993923082270301       0.984061132173747       0.962816837019692       1.022493045708637E-002
  6.394296987175270E-003  0.934393723051172       0.950432590924832       0.948098003275338       3.181733356065956E-002  3.072655953014325E-002  2.875358290228371E-002  0.941676983207338       0.947027891036075       0.943612591266903       5.467057126933857E-002  5.216262774081371E-002  4.956809733105997E-002  0.983015500721549       0.986570720930776       0.987070971623497     