 VARIABLES = "X" "Y" "RO" "U" "V" "P" "M"
 ZONE T="  0.000000000000000E+000 " N=        9944  E=       19548
 ZONETYPE=FETRIANGLE DATAPACKING=BLOCK
 VARLOCATION=([3-7]=CELLCENTERED)
  -19.9782054645671       -16.7460447536127       -13.5432470514743       -10.4462771124608       -7.39483127129757       -4.39431260318683       -1.43672854734527        1.47853524247441        4.40194279230921        7.38347804238703        10.4122197804982        13.5308676756442        16.7310607632789        20.0189460056259        20.0156650185539        20.0123451374732     
   20.0090067226427        20.0056742799471        20.0022854763303        19.9988742323503        19.9954939648514        19.9920871178897        19.9886881104951        19.9853470049941        19.9820070605281        19.9783478910574        16.7317203104092        13.4557822172063        10.1645634122701        6.87452312340184        3.53259687976399       0.170578499054329     
  -3.16443525887912       -6.48474521199279       -9.79114624567630       -13.0836966857758       -16.3754018560739       -20.0188035791356       -20.0155069002833       -20.0121812769038       -20.0088400757232       -20.0054989473046       -20.0021446450312       -19.9987763328347       -19.9953939522161       -19.9920253568386       -19.9886729196427       -19.9853365630757     
  -19.9819979716434       0.999851269620369       0.998335569231822       0.996824235502667       0.995323090608193       0.993777367373567       0.992170735708516       0.990498347084612       0.988764672875576       0.986969592383127       0.985110774115059       0.983174218470447       0.981168456618934       0.979077301981297       0.976913422602992       0.974672959219050     
  0.972348502153831       0.969937496884220       0.967439117826536       0.964851043302806       0.962173630332750       0.959401896825609       0.956528031987664       0.953540918316487       0.950431136474830       0.947227398382739       0.943908032331131       0.940440467857502       0.936867072915599       0.933175723850632       0.929344946958763       0.925339815013557     
  0.921190953821622       0.916893095698458       0.912432338215356       0.907799687361364       0.902988673294222       0.897992748780828       0.892799309804339       0.887395569581087       0.881773835610462       0.875926310627430       0.869854102387219       0.863549948283838       0.857005866251488       0.850211807201197       0.843158873380838       0.835838543783517     
  0.828244405391501       0.820367997084454       0.812201020848831       0.803735063913555       0.794961256310046       0.785871923118684       0.776458140263315       0.766595717506265       0.756373582516147       0.745780313054753       0.734805241538981       0.723441364017331       0.711676319424965       0.699497474425187       0.686897584239518       0.673864902419393     
  0.660385530079435       0.646452096552202       0.632051127550881       0.617165952765959       0.601785472581275       0.585889066134575       0.569464263107994       0.552495591467452       0.535572322428410       0.518612280202822       0.501583181181167       0.484485077082543       0.467317542142603       0.449430839108486       0.432140852351406       0.415445964871849     
  0.399344428411412       0.383820245196966       0.368788668710090       0.354231309961468       0.340144073864398       0.326535777448394       0.313391394536593       0.300711966786234       0.288498430606981       0.276732490922506       0.265389091279615       0.254420731667295       0.243814786161585       0.233558855418948       0.223645677863746       0.214067155124522     
  0.204811601901282       0.195867773399828       0.187231071026145       0.178885231034267       0.170820562344601       0.163020044608008       0.155476845238610       0.148184575863881       0.141137141070345       0.134328330853739       0.127751252142466       0.121400340005819       0.115270391477736       0.109356104761197       0.103652952056306       9.815656848857164E-002
  9.286277883619838E-002  8.776811242463406E-002  8.286885339370219E-002  7.816125810613032E-002  7.372362556423973E-002  6.944877756674656E-002  6.533840127976834E-002  6.139076457157809E-002  5.760601586599268E-002  5.396207851246811E-002  5.047064475882909E-002  4.712963259588927E-002  4.392127243728147E-002  4.081627266752826E-002  3.781149328521412E-002  3.488398586085567E-002
  3.203405126251781E-002  2.926672944162946E-002  2.658481280054237E-002  2.399222003433875E-002  2.149503640473798E-002  1.910087182550171E-002  1.692904526277040E-002  1.483687163555547E-002  1.284406240078305E-002  1.096956088446169E-002  9.238289047135900E-003  7.584754395213380E-003  5.971728797968661E-003  4.502552152920493E-003  3.167565530129704E-003  2.004181149483255E-003
  1.072223866435983E-003  4.405525559627990E-004  1.268290227703982E-004  4.957679321029862E-005  2.831220170390716E-004  8.745909899180858E-004  1.776739774811465E-003  2.901476185566945E-003  4.177891311257482E-003  5.551512740997579E-003  7.215515867028575E-003  8.969086030630380E-003  1.082700651024937E-002  1.270406450772039E-002  1.462920865227220E-002  1.664964947866974E-002
  1.881544058382801E-002  2.109333798554956E-002  2.349311700221274E-002  2.595574731584056E-002  2.848863317978884E-002  3.113538608037555E-002  3.393528733700992E-002  3.688588672878578E-002  3.997684296281644E-002  4.319627407853804E-002  4.653342412505877E-002  4.997651455870761E-002  5.352216508583552E-002  5.717023663025581E-002  6.091342729589316E-002  6.511038141694286E-002
  6.945307594870997E-002  7.393897377562871E-002  7.856498296700641E-002  8.326269280919639E-002  8.810102205205886E-002  9.310618440331338E-002  9.827614177692962E-002  0.103613023887870       0.109107171830218       0.114778008572056       0.120666469177309       0.126822222149364       0.133258333918046       0.139978073406305       0.146978050908017       0.154259575968195     
  0.161825826987122       0.169677907442266       0.177819849926152       0.186255214777918       0.194988529351843       0.204204863826080       0.213762816484398       0.223668210485238       0.233930191657457       0.244557115427968       0.255556204908053       0.266937905979646       0.278713068704387       0.290889305092374       0.303477531048722       0.316490171481815     
  0.329934827949096       0.343821530381089       0.358163815987830       0.372962096111101       0.388227150439963       0.403965196556215       0.420161852758120       0.436827581032550       0.453905044667392       0.471386074094882       0.488944356691877       0.506372937692454       0.523670049519983       0.540838045010638       0.557880602639009       0.574479331443757     
  0.590610533148388       0.606254410343295       0.621409798483144       0.636078690861814       0.650225058056022       0.663860212684759       0.676999355050569       0.689660314577569       0.701863313668938       0.713659666757777       0.725091136473600       0.736165686449589       0.746891529228403       0.757270770899598       0.767311747035428       0.777023208628359     
  0.786413896448255       0.795405706540429       0.804067760434156       0.812404844122384       0.820422821177222       0.828126314679218       0.835519641466062       0.842610034080639       0.849460140422770       0.856099890923540       0.862532376097450       0.868761384585601       0.874790789137109       0.880624585538092       0.886266068101366       0.891718351131263     
  0.896984887265845       0.902070033447293       0.906981531580985       0.911723931821618       0.916301740608925       0.920525407026323       0.924633073231695       0.928622853934602       0.932497637797646       0.936242457461398       0.939854301782745       0.943339540905642       0.946690407405829       0.949910521941849       0.953015255642653       0.955980478724641     
  0.958812860278120       0.961568911611872       0.964245576897367       0.966841017023843       0.969353980120761       0.971783890211277       0.974131929156444       0.976399147223898       0.978588870136729       0.980705013952021       0.982699314904484       0.984639079402687       0.986509614001614       0.988315680201989       0.990061255571630       0.991747642902877     
  0.993370391575930       0.994930779159412       0.996431328277915       0.997928024342851      -1.164499399594637E-003 -9.420405924787783E-004 -1.133773765705976E-003  0.996100955266523       0.997541349739788       0.996095524893956       0.997316938901876      -2.596418767291480E-003 -4.532411494370250E-004  0.995751566537099       0.996530181598750      -2.111819262823242E-003
  0.994712507892087      -2.465522498210861E-003  0.994203946924295       0.992543634877057      -8.045976074816274E-004  0.992995478358512       0.993977485152168      -2.540773906668317E-003 -4.059998552620934E-003  0.995056289298812       0.995215301844858       0.998957834769431      -1.478415029262293E-003  3.246377963086558E-004  0.991248767089349       0.989482083171238     
  0.987711503097174       0.992092659130418       0.998263381933434       0.993537977816955       0.991324155427829      -5.278010265977480E-005 -2.229648936691357E-003 -4.169966645982160E-003  0.992980914978251       0.997509493717779        1.00060795637235       0.998252926712127        1.00129221486330      -3.408537481103281E-003  1.376522722054894E-003  0.996633828312917     
  0.997060753909384       0.999613341383459       0.989592397148690       0.990266112060942       0.988418254942361       0.986508040505514       0.991055014216239       0.992833083477112       1.019119675940390E-003 -9.471838497620633E-004  3.631480835871264E-003   1.00239539856262       0.990577600095070      -5.509547505185585E-003  2.668322421485012E-003  0.991102118783343     
  0.987704113240996       0.989096739263306       2.243376700587965E-003 -4.253954402365726E-003  0.991843634327255        1.00002976422089       0.999467089353122       4.166550109508005E-003  0.989274210745787      -2.622047236843462E-003 -3.875806408890103E-003   1.00330792210208        1.00136724796670       0.994988657914255       0.999119022718206        1.00119163786458     
  0.993885065468854       7.560054461475089E-003 -2.693155555359917E-003  0.999739563601383       0.998877277673826       5.833163983887197E-003  0.985734493383672       0.983744301063342       0.991982636799886       0.998113416049057       0.986990819200249      -5.995210581275721E-003  0.988398154839445       9.248990556320176E-003 -5.498961908522999E-004  6.634764518375763E-004
 -5.453114248000415E-003  0.984417320380043        1.00357832420797       0.987291165011767       0.985089466357194       0.997947123208806       0.995916254733503      -1.518221908674293E-003   1.00417287918657        1.00604989774620        1.00191702219281       0.984840530630989       0.982587682271262        1.00100032444397       0.994296696107774       0.986203570944459     
 -4.837074496719545E-003  5.831925100893529E-003  1.528896241128589E-003  7.616632693038948E-003 -7.204372724330975E-003 -1.910752911871665E-003 -1.071749517638042E-004  1.991151001143971E-004  2.145342630973007E-003  0.994871850799760        1.00274355715315       0.995716272299425       0.988417388986500       0.992697464643265       0.982043231460157       0.979888365251767     
  0.982871626350632       3.882859352396261E-003 -5.693446721736099E-003 -7.584366953612464E-003  0.977741373750259       0.989806769645474       5.207626306158457E-003  0.986142039660421       0.991011146458494       0.993836270774773        1.00050168689986       0.999723342541499       3.069795275778180E-003   1.00551224466277        1.00448697679627       0.996716086022659     
  0.998668139431584       6.387710084513736E-003   1.00015863349695        1.00245951884999       1.104412901585273E-002   1.00304712177559        1.00700848071327        1.00474140914419        1.00734144234201       0.990226399917773       0.993314385370845       0.989127599323483       1.617004533924556E-003  6.957620546486456E-003  0.990171252398850       0.986065964235991     
  0.983413602782857       9.039390985202001E-003 -6.233287603203864E-003 -4.075682488048284E-003 -2.561270206636520E-003 -3.864187645246532E-003  0.991507370214879       0.992623641609163       0.980753900372112       0.978561171716731       0.976183494978307       1.074875010648958E-002  0.992136866417427       0.996161378427791       0.995139152677190       0.997194644623592     
  4.807204152737487E-003  1.268534194026375E-002  0.987734864436461       0.987426364576909        1.00337737601290       0.989451969085581       8.823664152383377E-003  0.987493160407646      -4.294460535236997E-003 -8.151411836524760E-003  0.981547193368739       0.980187678018053       1.304993116167322E-002  0.981982364272874       0.977688345731586      -6.261682639703788E-003
  0.985483714984542      -7.613200724396506E-003  1.108430691439953E-002  0.994675752999380      -3.185452769330763E-003  3.707490523450096E-003  0.975398867505606       1.071992336137431E-002 -7.322360547993137E-004  7.486155751122573E-004  1.466785810005756E-002 -9.394579761232072E-004  6.708167195694465E-003  0.978804497290240      -6.370501798402092E-003 -9.092285454299283E-003
  8.716689624180056E-003   1.00571805618256        1.00861092189661       0.979647659043357       0.977196930938904       0.974086341803242       0.984729372218452       0.982587678027091       0.993869609145763      -1.778512528574221E-003  1.262680743795698E-002 -9.900665366299860E-003  0.976769162792204       0.974395308785741       1.517652721006710E-002  4.399985720492496E-003
  8.812672180453290E-003  1.075341709474956E-002  0.973035135299102       0.970640647582880      -8.395239132400034E-003 -1.051765930736545E-002 -9.521463028983984E-005  1.328614852440578E-002  0.983821797992240       0.980984604181576       0.982882938925499       0.980245812752965       0.981092120427377       0.980645803105936        1.00902561470773        1.00574567020899     
 -6.072396120985190E-003  1.038645226726983E-003   1.00226637854639        1.00149908743716       0.984890898124852        1.00440086925910        1.00405076212912       0.971891100533369       1.739371595347537E-002  0.981922886255733       0.983317487956628       1.122890649477176E-002  0.998780603599894       0.989666867241464       0.969306496941610      -3.674343239555272E-003
 -5.172629544083241E-003  0.985757337087026       0.996127172915287       1.553822152528955E-002  0.979566012907350       2.469071199709375E-003  1.677686746876208E-002  1.462334240899390E-002  0.973718623754052        1.00800541996172       0.978812003754605        1.00150616446852        1.00043961284176       0.978411577442026       0.997728455421823       1.359719505400148E-002
 -4.531831566798599E-003 -8.452595368557969E-003 -2.893328204380123E-003 -1.013455669882416E-002 -9.752898469751366E-003  3.485131734702780E-003  0.975843601610344       0.975958269091388       0.973370558460094       1.164429083301340E-002   1.00965782654308       0.971025918094620       0.968560699880398       6.513133454490829E-003  0.971916946477900       0.966074709441507     
  0.963837747808264       8.908293965598947E-003 -7.928805303771280E-003 -1.085711742518203E-002 -1.884423140231873E-003  1.903219435723016E-002  1.685450625869819E-002  0.996608753046174        1.00323491978878      -1.195187928500670E-002  0.983129759271913       0.979956550140993      -1.001734793549561E-003 -7.377452590359394E-003  1.449405510541471E-002   1.00215125593426     
 -1.070629177996944E-002 -1.302411875025163E-002  0.977750160587062       0.977264262032587       8.756335457370730E-003  9.349617864149900E-003  0.987700000950134        1.01113117378106       0.990606193920732       1.587267405999985E-002  1.838913137891831E-003  0.969709941421274       0.967218563110844       0.964584908001690       0.961527411700037       1.786160208200405E-002
  2.772618650345633E-004  0.970655399637386       1.397654201800311E-002  1.972843817623050E-002 -1.229933483565427E-002  0.993512169523244       0.994912698802847       0.997658056248995       6.437980398800823E-003 -6.511653080941059E-003   1.00634858083117        1.00631552578283       0.967804269464855      -5.875348793981754E-003 -4.868550652880808E-003  4.013749847943307E-003
  0.971093597481866       1.281517362447052E-002  0.999367281505882        1.00105823862166       2.139227526199192E-002  1.924432704365577E-002  1.692587705083467E-002 -4.098300812870298E-003  2.217207018454330E-002  0.975109541430286       0.972279692333231      -1.473756589076306E-002  0.988069808515526      -1.066804287250367E-002   1.01076118039307       1.593985711860593E-002
  9.330088057653056E-003  2.031009437719329E-002   1.00495534069284       0.968518506380009       0.965940264791381       0.996285490132464       0.962976603099871       2.376838221694833E-002  6.190766158441150E-003  2.170945099371306E-002   1.00894266540709       6.303034127639230E-003  3.642937854811341E-003  3.308478510874382E-003  1.827407605479359E-002  3.312134735364612E-003
 -8.977446568776894E-003  0.990574447302092       0.985576118502802       0.983552528323549       0.985972937673968       0.988012455263565       0.995307263266432       1.437426290474621E-002 -1.999430350815783E-003  0.966400178036196       2.092717861725128E-002  0.969792780147621       0.991173861032555       0.990190098707636       0.987839493903129       0.985634073408094     
  0.988523295481418       0.989460690434844      -1.231465461176908E-002 -3.066090077957876E-003   1.00048543005464       0.984683053160976       0.968503832053470       0.998243777226161       0.997027119156939       2.610356334160907E-002   1.00839444831651        1.00662086076878        1.01016314416585        1.01186145779261      -1.311614689460810E-002 -1.570026328012020E-002
 -8.559537235478983E-003  1.953136725558297E-002  1.703273344773763E-002  1.429485281869593E-002 -1.017491077241401E-002  0.990890985060874        1.00929332947193       6.225078750908882E-003  0.980682753484313      -7.340811969807341E-003  0.992580658728062       0.993283701812668       0.994433243592084       1.184421065273342E-003  0.972642201222306       1.228955417702137E-002
  1.185868705518813E-002  0.981139254951115       0.971026676806128       0.959668749160960       0.963253924826098       0.960361765548365        1.00441822337146       0.964903564312695       0.968134982822342       0.974003865672603       0.972329612297837       0.975982594408550       0.976895550796456       0.975285979216466       0.973658353260440       0.957370131949803     
  0.954081103159927      -5.484174571203866E-003 -1.291437771566318E-002   1.01237103860258        1.01357864521060       0.982744371649532       0.980183117991785       6.616606294351438E-003  6.930572685565316E-004  5.394065096188324E-004  2.042978116261320E-004 -6.101707087764504E-003   1.01166798979242        1.00737004041583      -1.056526456361754E-002  2.865135127564841E-002
  2.581899908944933E-002 -1.506687600882296E-002  8.987629055953940E-003 -1.558547318438904E-002 -1.850221596062014E-002  0.992337993588044       0.990439508584249      -1.263867073768673E-002 -1.539194086564805E-002  2.707137511594077E-002   1.01125672449648       1.160929133802694E-002  0.986830086516525       0.987418624445906        1.00331075793322        1.00931847610949     
   1.01218621278486       0.988041749849259       0.962065326121626       0.959110234000045       0.955870872948885       0.952329272444211      -3.173701446767141E-003  0.978091394103959       0.985267447701855       0.984683095301653       0.982974784622845        1.00949370743466       0.977862150782490      -1.242919580227933E-002  0.984442576694923       0.967457911712251     
  0.969370738720534       0.970718955626063       0.971889280881096        1.01137714455293        1.01195736583831      -8.974683936248545E-003 -1.802141304705413E-002  0.963664278633130       0.974095159805820       0.971163967566417       6.041342392306233E-003   1.00746021414460      -4.156145483191168E-003 -7.861630528351291E-003   1.01218486585941        1.00447078595388     
   1.00233653711249        1.01315033468270       2.235636695760582E-002  2.976358054072907E-002  2.702937983516586E-002 -9.228570463236800E-003  2.282511112062157E-002  2.463091276326772E-002  2.374352402777710E-002  0.978357601567001       0.977075601528014       3.060392501582531E-003  3.018040767847068E-003  0.999346588068476       9.793519296912086E-003   1.01425255854971     
  0.961122246148656       0.987898056397204       0.993723662205954       0.995574495869931       0.958095651223645      -1.225398869830418E-002 -1.515892847184038E-002  0.964969643249683       0.980580768277470      -1.536679768237340E-002  0.981516303312504       0.984736827030763       0.991121238962765        1.00679514673169       0.973183032955420       0.969346889436706     
  0.966270283945731       0.963973898246048       0.967960692184732        1.01361302524196      -7.328680295288903E-003 -1.091456479266647E-002  1.138892413553722E-002  2.394957496182050E-002  1.992072023841420E-002  1.715252401873083E-002  3.139462856587988E-002  2.895824866514159E-002  2.751598651630313E-002   1.00529771672662       1.420261712415220E-002 -1.569894535702168E-003
 -1.542836160757227E-003   1.01444686874732        1.01675765600355      -1.551325227903300E-002  0.954988634955535       0.951873274751335       3.270421022005493E-002  3.041065992792355E-002  2.814474532921452E-002 -1.244558866567756E-002   1.01413791967900        1.01782865422957       0.975625088358666       0.970164043610494      -5.234758469448485E-003  8.716378030251149E-003
  6.976670767080425E-003 -1.848032301000547E-002   1.01435916099437        1.01545241470550       2.507514815825069E-002  2.165066976286160E-002  0.966276221504839       0.967794780886674       0.969289561653251       0.969475941092286       0.998054491928042        1.00581206338144        1.00854263164440        1.00433605815426      -1.080629160500315E-002 -1.326733451136611E-002
 -1.543970942233456E-002  0.948689836609917      -1.064581109206180E-002 -1.406908973588648E-002  0.975526129073423       0.956475595717429        1.00935510942371        1.01219316873798       0.981489797492979      -1.401591844638382E-002  0.991587655132130      -1.775140587416565E-002 -2.105749400279327E-002  3.563350325874174E-002  3.344129942232255E-002  3.129311019416825E-002
  2.930976058958445E-002  0.972571857508034       0.975378843407765        1.00125458382148        1.00000261421843       2.323529785862566E-002   1.00745781000674      -4.203831968608359E-005  5.826824306860725E-003  2.991998464389690E-003  0.966866457232552       0.969254461217689       0.978541200550667       2.484073807506265E-002  1.866920331232117E-002  1.600091305338383E-002
   1.00009039739272        1.00262733965906       0.999176140856277        1.00621993168269        1.01494185641203        1.01514646855914       1.305094115326157E-002   1.00388178508253       3.428219745547720E-002  3.140517862735243E-002  0.953423908532422       0.950167101679534        1.00571329824230       0.946598552425161       3.857795948707016E-002  3.632834834644141E-002
  3.419901877535943E-002   1.00928149508122       0.961221100906924       0.957736185788432       1.916626078236924E-002  0.962850164467767       0.985310038824050       0.977344681575066      -1.675518697320693E-002  0.965761669950228       2.026470852171466E-002  1.724000511587371E-002  0.964557109518855       0.966549114033846      -2.013892855472249E-004 -7.277000292382481E-003
 -1.426895093785092E-002  1.003978668660904E-002  0.964052111288783       0.961841335030626       0.968188391921276      -1.768249930620751E-002  8.410565166103811E-003  0.954940441641805       1.407202515054755E-002  2.247206104382270E-002  2.590636700387105E-002 -1.241910863518620E-002 -1.537025252213289E-002 -1.382916506733394E-002 -1.712887448765912E-002 -1.778826747775548E-002
  0.954955583176345       0.959129087163548      -2.177756973560570E-002  4.162553787744412E-002  3.920156291337037E-002  3.684291065479559E-002  3.504448528150068E-002  6.982768908287405E-003   1.01268008925766        1.01726203765459        1.01921022416828        1.01003700918661        1.01694013277833       0.971952105867220       0.975357784846907       0.960925778834963     
 -2.504204699158252E-003  3.741049543863434E-002  3.465077709747438E-002  3.163194691153322E-002  0.952087635198585       0.948316842405981       2.363121634494864E-002  0.996976520289409       4.427544984832422E-003  4.105038944758184E-003 -1.799305492129022E-002 -1.576000535481651E-002 -1.761907235921111E-002  0.962908638982318       0.959013007264882       0.978436574434849     
  5.710524140183222E-003  3.587388929923664E-003  1.335058463609672E-002  1.108042758799073E-002  0.943767642089274       0.948749374785080      -1.857534073347482E-002 -1.852838366821428E-002 -1.778212312392586E-002 -2.156648206211033E-002  0.965223679744766       4.483081277405040E-002  4.235921480404151E-002  3.940605632326252E-002  1.980448792126465E-002  0.954442759500607     
  0.957871050584777       0.960046449189303       0.950896133697961       0.956604441690567       0.953038088008179       0.949417047254434       7.726439653691102E-003 -1.225093928733453E-002  0.998002382183646       0.974690078879424       0.973478917543790      -2.032431296019394E-002 -2.031595262174289E-002  0.970949143764463       1.636657699626610E-002  1.500194370853819E-003
  0.981665482050939       0.984714117785218       1.685386657031007E-002  2.050676593812985E-002  1.731350821494905E-002  1.395010102667049E-002  4.064362035755036E-002  3.800543940539954E-002  0.978990166539878       0.973769260442716       1.018938685923654E-002  6.866939373007614E-003  0.945293045460957       0.941787452059974       1.030661427199383E-003  1.067333981297498E-002
   1.01453141287303       0.961124661868526       0.957000561543153      -1.925561795425687E-002 -2.148212311124240E-002  0.938182348277085       0.934525841976284       2.341267902524206E-002  0.947351769067567       3.515483717664895E-002  3.198165577357730E-002  2.721928088699362E-002  4.815890911009513E-002  4.575049735927347E-002  4.328553766039493E-002  4.120499859455434E-002
 -6.748484973819748E-004  0.987929297010932       0.991160873820495       0.955276441208214       3.842090534196593E-003 -1.899937330571438E-003   1.01448437886459       2.395356978306399E-002  4.392296427004700E-002  4.132558512884887E-002  3.881324769795118E-002  2.055485185547890E-002  6.886484348217474E-003  1.368301413693279E-002  0.943832670148116       0.940236514706250     
  0.942798050560993       0.987888721211552       0.994362755177748       0.994427157456758       0.945844274712635      -2.147255476024695E-003  0.958890430602348       0.951524515775863       0.947745181130217       0.988986996271913       0.992673292932718       0.938708105329533        1.01104059973374       0.991164409529336       0.934912222579007       0.957021887104140     
  0.955012770864492       0.952867577636224       0.972029994083804       0.945892495431633       0.957727445218696       1.031658613794207E-002  6.698442402786257E-003   1.01680292280781        1.01539269577182        1.01682856991253        1.01905751214396       9.190101369429382E-004 -1.317743706465206E-003  1.031637397455487E-002  4.728060327708229E-002  4.452915136537046E-002
  4.198792473736058E-002  4.051094814805810E-002  0.950674053813523       0.946561874528654       0.930910029318991       2.077031118530215E-002  1.743659530366023E-002  2.643583339038101E-002  0.989930766270559       0.978674948045947       0.982549083710509       0.986281729959670       0.975390975962171       0.975381545754367       5.159177095590339E-002  4.914505649434030E-002
  4.666934203905461E-002  4.428541218307190E-002  4.119057451381501E-002  0.953793277488357       0.956201703377145       1.393104393191697E-002  1.740965854925400E-002  0.961770011763401       0.993601923859134       0.964296491601371       0.960267961033206       0.966853016835403       0.940321754961652       0.998464389299069        1.00146065201422       0.994561584535013     
  0.942440631300040       0.938742011174416        1.00226325865286       0.949043025432468       1.404989168751251E-002   1.01796279090371       2.804971905609901E-002  3.266696309190750E-003  0.936476043965244       0.952985192751214        1.00068466910731        1.00344239727196        1.00656833301963       0.967797201005929       0.945165863303364       0.949808156503560     
  0.945241137991589       6.313680997127060E-003  5.079245299627085E-002  4.789436226372930E-002  4.470936331332321E-002 -9.410997382185067E-003 -1.249143838539839E-002 -1.589415474484192E-002 -5.715762929050506E-003 -8.076646066571776E-003 -3.791128864341074E-003  0.987748283491180       0.979824611757981       0.999803810459898       0.944548251614526       0.936916481219219     
  0.932901493347788       2.448492653540060E-002  2.839650613889783E-002  2.452076289202584E-002  0.997257224838035       0.998599065004460       0.991127198309928        1.01834965120726        1.02040934764501       0.990747935571282       0.996262757645454       0.997387558783127       0.994522884421172       0.984525521226467       0.963445969231498       1.047257178188440E-002
  6.625968045459458E-003  0.934687420251647       0.951075089493362       0.948741033085971       3.218989634953632E-002  3.109128997636671E-002  2.910414338397614E-002  0.942328892873187       0.947672891577581       0.944259503626654       5.515295017394090E-002  5.262954495306223E-002  5.001973372912628E-002  0.983623846490795       0.987176202259858       0.987676365806745     