 VARIABLES = "X" "Y" "RO" "U" "V" "P" "M"
 ZONE T="  0.000000000000000E+000 " N=        9944  E=       19548
 ZONETYPE=FETRIANGLE DATAPACKING=BLOCK
 VARLOCATION=([3-7]=CELLCENTERED)
  -19.9782054645671       -16.7460447536127       -13.5432470514743       -10.4462771124608       -7.39483127129757       -4.39431260318683       -1.43672854734527        1.47853524247441        4.40194279230921        7.38347804238703        10.4122197804982        13.5308676756442        16.7310607632789        20.0189460056259        20.0156650185539        20.0123451374732     
   20.0090067226427        20.0056742799471        20.0022854763303        19.9988742323503        19.9954939648514        19.9920871178897        19.9886881104951        19.9853470049941        19.9820070605281        19.9783478910574        16.7317203104092        13.4557822172063        10.1645634122701        6.87452312340184        3.53259687976399       0.170578499054329     
  -3.16443525887912       -6.48474521199279       -9.79114624567630       -13.0836966857758       -16.3754018560739       -20.0188035791356       -20.0155069002833       -20.0121812769038       -20.0088400757232       -20.0054989473046       -20.0021446450312       -19.9987763328347       -19.9953939522161       -19.9920253568386       -19.9886729196427       -19.9853365630757     
  -19.9819979716434       0.999697448091744       0.998180243937001       0.996667455601664       0.995164909471593       0.993617787902010       0.992009749653308       0.990335946390484       0.988600857585435       0.986804366379868       0.984944143275420       0.983006182391812       0.980999025333801       0.978906478494130       0.976741222342873       0.974499398318428     
  0.972173595421397       0.969761260736483       0.967261570907325       0.964672205287755       0.961993522845892       0.959220540525477       0.956345445329176       0.953357116413142       0.950246132152418       0.947041216103716       0.943720688614906       0.940251969060995       0.936677440362117       0.932984975185228       0.929153094462374       0.925146863522032     
  0.920996919723232       0.916697997260876       0.912236194682380       0.907602521664230       0.902790514083929       0.897793631903302       0.892599278838555       0.887194677797929       0.881572148675746       0.875723908196096       0.869651080379415       0.863346418750097       0.856801958166036       0.850007666952536       0.842954665105081       0.835634449135680     
  0.828040622692907       0.820164740024050       0.811998516703474       0.803533551278111       0.794760982401706       0.785673140370998       0.776261102821393       0.766400701831689       0.756180841347534       0.745590087904286       0.734617757010271       0.723256820920500       0.711494889876950       0.699319295457803       0.686722749656696       0.673693457223329     
  0.660217464259829       0.646287336909804       0.631889533122580       0.617007309819352       0.601629488646827       0.585735367903388       0.569312392662544       0.552345006348951       0.535422386082855       0.518462348022373       0.501432601765992       0.484333200919575       0.467163731808181       0.449274371683732       0.431981234103756       0.415282805964250     
  0.399177437652605       0.383649219218586       0.368613463276552       0.354051847160083       0.339960338904356       0.326347815827604       0.313199297827911       0.300515870859894       0.288298509139397       0.276528943266186       0.265182135123297       0.254210592362647       0.243601703959645       0.233343082391864       0.223427476414456       0.213846795101727     
  0.204589357566686       0.195643921796346       0.187005891489649       0.178659002012017       0.170593561632853       0.162792548223236       0.155249128006088       0.147956910723718       0.140909798451677       0.134101578160293       0.127525353465797       0.121175555710815       0.115046977826746       0.109134313672654       0.103433030657632       9.793875877615400E-002
  9.264731732636911E-002  8.755522951192510E-002  8.265877308330130E-002  7.795419769485093E-002  7.351973361571658E-002  6.924826189407045E-002  6.514146134569221E-002  6.119759321666819E-002  5.741679661297680E-002  5.377701054348155E-002  5.028990685046353E-002  4.695339634699761E-002  4.374972554575786E-002  4.064964517911867E-002  3.765002587912628E-002  3.472797085234859E-002
  3.188380004637661E-002  2.912256520112947E-002  2.644707678088402E-002  2.386127137468540E-002  2.137124826888543E-002  1.898462725158661E-002  1.682032899134902E-002  1.473615101656134E-002  1.275178640783440E-002  1.088614651625440E-002  9.164063114725670E-003  7.520477416642354E-003  5.918655058106512E-003  4.461527510320609E-003  3.139849138409593E-003  1.991216426930766E-003
  1.075388107321607E-003  4.604345348685070E-004  1.622255020125227E-004  1.008506360851980E-004  3.553757815419944E-004  9.679482140229034E-004  1.890620783088994E-003  3.034554344240615E-003  4.328747981834430E-003  5.718779392034979E-003  7.400249246708672E-003  9.170262743552976E-003  1.104401912298085E-002  1.293581803123260E-002  1.487504434602949E-002  1.690934728460779E-002
  1.908913376381706E-002  2.138094068210709E-002  2.379460979876890E-002  2.627079336702818E-002  2.881697521666435E-002  3.147700895192766E-002  3.429035615398332E-002  3.725452773064307E-002  4.035911359198987E-002  4.359216555145222E-002  4.694287452822883E-002  5.039941158421557E-002  5.395838328091375E-002  5.761964977034197E-002  6.137588299113193E-002  6.558690873101267E-002
  6.994359545823642E-002  7.444338501141280E-002  7.908316400312365E-002  8.379431831418613E-002  8.864596327056078E-002  9.366436793415193E-002  9.884746845495500E-002  0.104197379950522       0.109704401331487       0.115387981307322       0.121289118888702       0.127457549326903       0.133906317801569       0.140638650058934       0.147651101223421       0.154944935338707     
  0.162523288337026       0.170387217560801       0.178540713531890       0.186987292811760       0.195731439116414       0.204958377291799       0.214526462097160       0.224441460309036       0.234712461828802       0.245347761873714       0.256354519001500       0.267743112933573       0.279524322920388       0.291705683678557       0.304298030387426       0.317313701602923     
  0.330760205280553       0.344647472444770       0.358988934523120       0.373784891647445       0.389046006100533       0.404778372803658       0.420967493031158       0.437623700536382       0.454689574790384       0.472156846632763       0.489699412307028       0.507110544613380       0.524388556817418       0.541535881702843       0.558556279236375       0.575131906069687     
  0.591239275682145       0.606858798165826       0.621989483941716       0.636633487365865       0.650754997855760       0.664365456970720       0.677480172405356       0.690117061413865       0.702296415366241       0.714069542455884       0.725478202776729       0.736530413657185       0.747234432504440       0.757592414870028       0.767612725621041       0.777304136986693     
  0.786675404271440       0.795648611471657       0.804292757330596       0.812612632645457       0.820614098765984       0.828301774913886       0.835679971114803       0.842755904214175       0.849592091792420       0.856218400071619       0.862637908872637       0.868854393818172       0.874871713947784       0.880693850929011       0.886324086514522       0.891765523234339     
  0.897021601936647       0.902096666814209       0.906998441275989       0.911731464316262       0.916300232290720       0.920515567649302       0.924615142690667       0.928597077193818       0.932464256056987       0.936201743564263       0.939806536853314       0.943284996106551       0.946629371353425       0.949843278252720       0.952942060186461       0.955901634840746     
  0.958728658846307       0.961479537500156       0.964151222254479       0.966741878406073       0.969250256792089       0.971675782290180       0.974019633887376       0.976282858745500       0.978468775099960       0.980581290309478       0.982572219388912       0.984508751204792       0.986376214573940       0.988179360269136       0.989922156554274       0.991605901225288     
  0.993226147385355       0.994784167092140       0.996282475610396       0.997776973244970      -1.120087353471844E-003 -9.127022202665929E-004 -1.072696704962540E-003  0.995943211346020       0.997384642126560       0.995937326602188       0.997168644574157      -2.543499725437218E-003 -4.392308947633918E-004  0.995605150877329       0.996384215856518      -2.087681422737665E-003
  0.994553590221703      -2.426783518892856E-003  0.994059423818997       0.992401525282501      -7.233311095867942E-004  0.992835053960618       0.993817527318643      -2.471668650495893E-003 -4.012372194833570E-003  0.994911615837540       0.995072235783926       0.998808016441344      -1.469362981114305E-003  3.229931253513290E-004  0.991086940885314       0.989318897209044     
  0.987546966349625       0.991931325915652       0.998115805141363       0.993395392767906       0.991184858390812       5.059442175863897E-005 -2.136148838385507E-003 -4.110254433172898E-003  0.992819998359424       0.997364366222188        1.00045744029434       0.998096253823568        1.00113978974287      -3.389243499875763E-003  1.359670612364784E-003  0.996491951160387     
  0.996902640053147       0.999458441016156       0.989454684445775       0.990103523242698       0.988254415108813       0.986342906449359       0.990914937467448       0.992693634477636       1.141288811172722E-003 -8.343174273313630E-004  3.788842094103580E-003   1.00224530957333       0.990441483069392      -5.455515549779741E-003  2.637167631532853E-003  0.990939997630099     
  0.987569571358976       0.988961206428651       2.383389514861580E-003 -4.177613973395948E-003  0.991681863688803       0.999874103823108       0.999320376057260       4.122025776620619E-003  0.989111044534501      -2.617633747866921E-003 -3.841788234076894E-003   1.00315665653583        1.00121915708685       0.994829093284920       0.998962271736748        1.00103613151352     
  0.993724552601803       7.492127768224920E-003 -2.585713140247694E-003  0.999590961108222       0.998733352455560       5.776112996756222E-003  0.985603099907473       0.983616112442845       0.991846380305863       0.997972651154007       0.986858371345304      -5.929790119489415E-003  0.988264904187936       9.172650253348192E-003 -5.559532201086615E-004  6.427394969923611E-004
 -5.423876762657449E-003  0.984250619373085        1.00343011009248       0.987126713269718       0.984923438421046       0.997788946037715       0.995756950941587      -1.528436330052712E-003   1.00402317535515        1.00590165024805        1.00176316284678       0.984711230146033       0.982461669222741        1.00085483249178       0.994157550134743       0.986073195496644     
 -4.822641831484137E-003  5.770056702258225E-003  1.676028731011800E-003  7.545704827454003E-003 -7.180167103582651E-003 -1.791115400264947E-003 -1.316291660173645E-004  3.286921612705720E-004  2.110482774702965E-003  0.994711702448246        1.00259703804445       0.995577740544691       0.988253719742083       0.992536090046438       0.981874665348430       0.979718429823929     
  0.982703830390280       3.834270511420098E-003 -5.649702891493225E-003 -7.529214556859936E-003  0.977570036328331       0.989673149627328       5.382132522084735E-003  0.985976460582060       0.990877524338894       0.993675201679327        1.00035911144286       0.999583806498982       3.234417217903266E-003   1.00536186551862        1.00433463943582       0.996556864641482     
  0.998509749766794       6.319248534424656E-003   1.00000188361476        1.00230415733219       1.095875141745828E-002   1.00290300175853        1.00685724749558        1.00459523997498        1.00719587886043       0.990063647487462       0.993178340430914       0.988995620163804       1.578475167774989E-003  7.149251599667158E-003  0.990008577553618       0.985900673931081     
  0.983246335402412       8.961117779185519E-003 -6.150800541329706E-003 -3.965451318331890E-003 -2.575371657501880E-003 -3.864274997238753E-003  0.991345029541671       0.992461621612848       0.980584866799805       0.978390839827748       0.976011654539070       1.097205959551975E-002  0.992003606571860       0.996001524864651       0.994978390617734       0.997057023852598     
  4.989222681597400E-003  1.292219365613746E-002  0.987603514069622       0.987296644115007        1.00322318153956       0.989288590840344       9.031734809792906E-003  0.987328734984850      -4.198420513097741E-003 -8.079182476170274E-003  0.981378765936612       0.980065536772371       1.295553067282765E-002  0.981856691377260       0.977570617342361      -6.162935337440573E-003
  0.985355553059540      -7.574007836793887E-003  1.099624661532871E-002  0.994540287988127      -3.058667948143014E-003  3.654654475833421E-003  0.975284887565699       1.094941371762659E-002 -5.953703069737999E-004  9.031616909663403E-004  1.491773030746558E-002 -9.673051007664987E-004  6.907275858912067E-003  0.978685835090497      -6.361103871544388E-003 -9.073851697685743E-003
  8.932059499305318E-003   1.00556485036043        1.00845896381099       0.979478349697673       0.977026244807346       0.973913359014212       0.984563132161006       0.982420122482501       0.993707900357830      -1.634129444397329E-003  1.286767474587673E-002 -9.850807855047380E-003  0.976653487757696       0.974283597231699       1.507385297609916E-002  4.589704352486250E-003
  8.731598666727566E-003  1.098767928330325E-002  0.972925264916526       0.970534998984683      -8.307360244054445E-003 -1.043952763994600E-002  6.677626319350030E-005  1.318925789957498E-002  0.983694914399900       0.980862780930231       0.982759288746630       0.980126661191036       0.980923696161004       0.980477272590378        1.00887847489813        1.00560187523208     
 -5.957117564037086E-003  9.966420421623485E-004   1.00212521444091        1.00136089223707       0.984765963895930        1.00424645664125        1.00389551714828       0.971783591985448       1.728341811673368E-002  0.981802302165499       0.983195903163273       1.113781118257966E-002  0.998644089419767       0.989535621902068       0.969203085571292      -3.692052500486858E-003
 -5.177064885457216E-003  0.985591859154867       0.995992592292759       1.543368725306186E-002  0.979448631166740       2.641257323132128E-003  1.704047159718938E-002  1.487720569045451E-002  0.973544998191713        1.00785610615860       0.978642498222596        1.00134954729126        1.00028163789317       0.978294259495091       0.997568990640357       1.349784266722563E-002
 -4.397452759546128E-003 -8.349844955393523E-003 -2.741756351238203E-003 -1.007123280670002E-002 -9.718194362030905E-003  3.427856963705684E-003  0.975671141663036       0.975844753769756       0.973261251068863       1.154990693643066E-002   1.00950770141224       0.970850667615095       0.968384193372522       6.719953691560238E-003  0.971742415744505       0.965896941823725     
  0.963658975415767       8.824064016074296E-003 -7.924440024279954E-003 -1.084475622924918E-002 -1.915340999874826E-003  1.930983954488202E-002  1.712238475547511E-002  0.996448358263205        1.00307838444530      -1.189457080446577E-002  0.982962750786654       0.979787684533641      -8.324215879975603E-004 -7.252561220304576E-003  1.475239355713814E-002   1.00199351209718     
 -1.061320754675540E-002 -1.294017908673028E-002  0.977634684830324       0.977151296087014       8.979425160349793E-003  9.582325837939444E-003  0.987572385372960        1.01098053714578       0.990476378822489       1.576683256369722E-002  2.018743552423640E-003  0.969534420702897       0.967041884614882       0.964406995724137       0.961347852961650       1.774987511614938E-002
  2.312959810524312E-004  0.970550425078887       1.387527248544751E-002  1.961072996680767E-002 -1.225341326643099E-002  0.993379695732840       0.994781024160432       0.997524487758512       6.652477658443591E-003 -6.520197937841739E-003   1.00619462344885        1.00616047774730       0.967704069134996      -5.733887878950268E-003 -4.889801708722498E-003  4.211262513504571E-003
  0.970918985733722       1.271663593374270E-002  0.999208214925956        1.00089945978635       2.168369254889208E-002  1.952619211856509E-002  1.719811781133890E-002 -3.939989416913447E-003  2.204712401351163E-002  0.974998480965342       0.972173002805406      -1.467928700089239E-002  0.987944235580233      -1.056164087805296E-002   1.01061285811463       1.583307621306463E-002
  9.242863998219025E-003  2.019095459490482E-002   1.00479895635357       0.968342820704458       0.965763588167288       0.996154909657653       0.962798458776343       2.407228180657624E-002  6.118728202755243E-003  2.200468482458309E-002   1.00878936187493       6.525495875923912E-003  3.848631153411088E-003  3.522664101634736E-003  1.816099526145194E-002  3.250642542318838E-003
 -8.844615286745551E-003  0.990447043884508       0.985452449945981       0.983431872658015       0.985850139701254       0.987888786846400       0.995145915214286       1.463706752588995E-002 -1.822490596119722E-003  0.966301668545145       2.080661932036221E-002  0.969617962220120       0.991010874768081       0.990026893444592       0.987675174266542       0.985468468185402     
  0.988359092278608       0.989296612456206      -1.228633898665412E-002 -3.100074862523478E-003   1.00035013267472       0.984563688773314       0.968401447732525       0.998083786206756       0.996866194539766       2.641886680559562E-002   1.00825103363020        1.00647905103348        1.01001810630879        1.01171504206329      -1.301789234282601E-002 -1.561000928315929E-002
 -8.446341323330978E-003  1.981728086319206E-002  1.730910557210854E-002  1.456181987099893E-002 -1.005703213964045E-002  0.990766016570048        1.00913904656580       6.148985348569527E-003  0.980565059607630      -7.192618982862646E-003  0.992450519950082       0.993154835550774       0.994306769712823       1.372223690644389E-003  0.972468802121064       1.253390860197885E-002
  1.210768115189962E-002  0.981023691325434       0.970852888206990       0.959488781768687       0.963161840229630       0.960274834628921        1.00427603452715       0.964808947169091       0.967959909667527       0.973831698679804       0.972156784311758       0.975811527869590       0.976725128847888       0.975114705561640       0.973486246599752       0.957288653643832     
  0.954005689740372      -5.319531927822787E-003 -1.280385633671039E-002   1.01222167855180        1.01342832005613       0.982577334997628       0.980014547355634       6.536745858421752E-003  6.405566442287639E-004  7.364110678223458E-004  4.106891168630959E-004 -6.126530223618146E-003   1.01151509843048        1.00721466175372      -1.042508159248193E-002  2.898119828794358E-002
  2.613480452460858E-002 -1.502678677373931E-002  9.226672731764994E-003 -1.548142400461973E-002 -1.840435613171043E-002  0.992175253110579       0.990275627105164      -1.256995079698352E-002 -1.531720920005720E-002  2.693470766448443E-002   1.01111373318012       1.186268523438311E-002  0.986664774127214       0.987253451990091        1.00317395936047        1.00917709371202     
   1.01204524180553       0.987876687693998       0.961975527602177       0.959025699350607       0.955792121342541       0.952256968930123      -2.986584910532900E-003  0.977979494919571       0.985101475290769       0.984516953532463       0.982807907978073        1.00933875438863       0.977692217590012      -1.230366728836241E-002  0.984276132628541       0.967282190820966     
  0.969196590832888       0.970545589852825       0.971716556290353        1.01122544786748        1.01180365060283      -8.820394905282712E-003 -1.797029616778035E-002  0.963572246193288       0.973986876856708       0.971059985434028       6.271348300484839E-003   1.00732052948885      -4.192735433453953E-003 -7.874070552195755E-003   1.01203041753585        1.00433101108477     
   1.00220251267775        1.01300572040169       2.265553548861221E-002  2.962000740016175E-002  2.689403478766298E-002 -9.244670833237607E-003  2.269895041089976E-002  2.449965110320293E-002  2.361605073190974E-002  0.978247109074184       0.976905190812754       3.282492710904616E-003  2.950922916930154E-003  0.999214221593432       9.704047046291507E-003   1.01410097846995     
  0.961034624692613       0.987777470708580       0.993561223408625       0.995412433102732       0.957914314268141      -1.210806203768772E-002 -1.513017003959739E-002  0.964793086154271       0.980412414782425      -1.525220763057618E-002  0.981403131099234       0.984621373687911       0.990999572280204        1.00663898479050       0.973077074980413       0.969244873833166     
  0.966173800857449       0.963882594959487       0.967861937334061        1.01346554558810      -7.357010001400607E-003 -1.091886032528390E-002  1.164646684088332E-002  2.425479094401289E-002  2.021069292996213E-002  1.743323082582709E-002  3.173749022614421E-002  2.929139435764550E-002  2.784388245595918E-002   1.00516218122856       1.447404037246267E-002 -1.613604438850057E-003
 -1.592407013964087E-003   1.01430094364754        1.01661109016161      -1.538738884342909E-002  0.954805999877425       0.951689408105760       3.255426225880259E-002  3.026674744287383E-002  2.800700662118993E-002 -1.245378913547922E-002   1.01398526344393        1.01767737601836       0.975515845259382       0.970063050625340      -5.273266967476055E-003  8.960589116583713E-003
  6.894290204221684E-003 -1.839976728411542E-002   1.01421673295756        1.01531196714698       2.494397535487024E-002  2.152880547456157E-002  0.966100769227576       0.967620294042744       0.969115787375124       0.969302395411901       0.997925403247866        1.00567422485847        1.00840526275454        1.00420338990045      -1.064606736786564E-002 -1.313194836615587E-002
 -1.530180123445384E-002  0.948504686214943      -1.066487726405100E-002 -1.408111648150293E-002  0.975418196329754       0.956294102827896        1.00919948485642        1.01203814765745       0.981321672427670      -1.401289149498336E-002  0.991423914538016      -1.771669848404075E-002 -2.101301596915266E-002  3.547810507899344E-002  3.329150104158642E-002  3.114852573627808E-002
  2.916996105115309E-002  0.972468572439832       0.975272985680579        1.00112349419792       0.999874844232544       2.354006606413133E-002   1.00732402647454       1.718818071503193E-004  6.063284122038886E-003  3.221732197683519E-003  0.966771435870132       0.969156834005316       0.978432606912209       2.471140809982913E-002  1.855479719602390E-002  1.589325878613597E-002
  0.999930777206363        1.00246868828301       0.999015563212665        1.00608834080176        1.01478866703630        1.01499248348272       1.295135252420209E-002   1.00372415273004       3.463876255621644E-002  3.174946675252648E-002  0.953241259337475       0.949983168524601        1.00555564735338       0.946413222189465       3.841757894362529E-002  3.617364801038513E-002
  3.404935050770504E-002   1.00914965129446       0.961042506721848       0.957555773585438       1.905066678978439E-002  0.962673010234146       0.985143601188681       0.977174346013255      -1.673227056634610E-002  0.965669759044260       2.055986545879111E-002  1.752586378287077E-002  0.964381186409457       0.966374281976191       1.976974810551080E-005 -7.106901452129916E-003
 -1.411575354457640E-002  9.948182707887861E-003  0.963962011324080       0.961755229406764       0.968094508973958      -1.761614632990606E-002  8.658906823793675E-003  0.954758758656001       1.434877157958701E-002  2.234862891011119E-002  2.577464306935895E-002 -1.241173975705991E-002 -1.535676327714274E-002 -1.381009396370676E-002 -1.711941811541309E-002 -1.767184563287479E-002
  0.954774557307308       0.958950093617384      -2.168872841235879E-002  4.146012584977608E-002  3.904233765961319E-002  3.668869383513482E-002  3.489480358518793E-002  6.898211412874720E-003   1.01254176170577        1.01712033721788        1.01907019573444        1.00989724192502        1.01680237268759       0.971852109115478       0.975254589210219       0.960748151377701     
 -2.303431386398580E-003  3.778119818493320E-002  3.500953941337833E-002  3.197787771243889E-002  0.951905021432577       0.948132901147702       2.394290552232435E-002  0.996850466111875       4.352080034510929E-003  4.028503709101414E-003 -1.797588535711049E-002 -1.576123372182133E-002 -1.762429158138783E-002  0.962732192606145       0.958834871787310       0.978266946314393     
  5.951838396732761E-003  3.826802954267839E-003  1.324957040696496E-002  1.134240582117891E-002  0.943581908591858       0.948684469723455      -1.844907175356193E-002 -1.838410191113204E-002 -1.767289346997500E-002 -2.145817096496951E-002  0.965048329581076       4.466041495070162E-002  4.219456029299745E-002  3.924795387670191E-002  1.968759918912232E-002  0.954366993718201     
  0.957789171959659       0.959961644548255       0.950827116379171       0.956525455888605       0.952965546921543       0.949351227940245       7.978630545216088E-003 -1.227131320171344E-002  0.997879066400412       0.974518440477856       0.973307028057252      -2.030857254508164E-002 -2.028859379094730E-002  0.970853464134254       1.625800916730123E-002  1.432077018021536E-003
  0.981554845775796       0.984601663591886       1.674400120161072E-002  2.080779746872036E-002  1.760524017887440E-002  1.423311622136194E-002  4.102813696714261E-002  3.837898557576390E-002  0.978882953863405       0.973672042869429       1.009576589397690E-002  6.780328585214703E-003  0.945234657106936       0.941735619178853       9.604284572661919E-004  1.094095860013237E-002
   1.01437645699053       0.960947656561165       0.956821921937304      -1.925040206821697E-002 -2.148143177349855E-002  0.938137425901656       0.934488054672647       2.328745586647053E-002  0.947289552626851       3.551610310757323E-002  3.232923018641932E-002  2.708540017141146E-002  4.798397250750447E-002  4.558107395096787E-002  4.312138575549139E-002  4.104520127418866E-002
 -4.477027488600291E-004  0.987812188648653       0.991042534634027       0.955200625782422       3.764071989381904E-003 -1.958094126988349E-003   1.01434862494961       2.426999329332956E-002  4.432038923265717E-002  4.171267709457910E-002  3.919075007929590E-002  2.043650765705329E-002  7.144599190988527E-003  1.358029551430934E-002  0.943776776311344       0.940187137965367     
  0.942611070315717       0.987774782791366       0.994240078138811       0.994307985506268       0.945658116727727      -2.211141249445547E-003  0.958808155643509       0.951455239445839       0.947682598046119       0.988821932303503       0.992509561806614       0.938519724643258        1.01090568011966       0.991049230944722       0.934722682966278       0.956842498278943     
  0.954832954880139       0.952687371265595       0.971857709228297       0.945833030956086       0.957648665611824       1.022083014476258E-002  6.609424162342906E-003   1.01665890835160        1.01524408343400        1.01667879271957        1.01890979054877       8.462443342084069E-004 -1.387920561031844E-003  1.059073401106869E-002  4.769079702043420E-002  4.492753030956029E-002
  4.237742242606132E-002  4.089479090565776E-002  0.950491533472337       0.946378064334347       0.930719266566573       2.107699244204475E-002  1.773470841071514E-002  2.676107373275500E-002  0.989765672374268       0.978505390848013       0.982381288541076       0.986115370041757       0.975219953221839       0.975210730430816       5.141253148823925E-002  4.897137965071490E-002
  4.650076468888997E-002  4.412142795786581E-002  4.103345128483762E-002  0.953720859866884       0.956126547456279       1.422094614799354E-002  1.729823487095374E-002  0.961682989067150       0.993438076112971       0.964208530739409       0.960186517408174       0.966763377289456       0.940134383332147       0.998303073152759        1.00130026572635       0.994445300023220     
  0.942386822204623       0.938695074326328        1.00213716244305       0.948860591374165       1.394528217189689E-002   1.01782806452759       2.838235607375013E-002  3.187056887525717E-003  0.936433760619103       0.952804088394340        1.00056305950478        1.00331240801582        1.00643948636691       0.967623055987152       0.944982308986551       0.949741940117459     
  0.945182567971464       6.579003336240934E-003  5.121599254140027E-002  4.830552785131830E-002  4.510840800182013E-002 -9.237753064163403E-003 -1.232665718521738E-002 -1.573163410472497E-002 -5.528068240291727E-003 -7.888472828046410E-003 -3.586293539145107E-003  0.987637548151017       0.979655663484139       0.999642417509888       0.944490969588372       0.936728215727451     
  0.932712054265927       2.480627545761213E-002  2.873338130583167E-002  2.439392480389454E-002  0.997137746483461       0.998481840465148       0.991015164734146        1.01819724152033        1.02026754446120       0.990582781533664       0.996100353036193       0.997224888430466       0.994358856727705       0.984416038855648       0.963270072980991       1.037458546527743E-002
  6.534489538229716E-003  0.934648035676893       0.950893747544129       0.948559387740259       3.204473615919250E-002  3.094919926568060E-002  2.896769820528894E-002  0.942143677256609       0.947490487715919       0.944076215279188       5.496954042016065E-002  5.245166287323953E-002  4.984732336275043E-002  0.983456380294273       0.987009886489973       0.987510060394810     