 VARIABLES = "X" "Y" "RO" "U" "V" "P" "M"
 ZONE T="  0.000000000000000E+000 " N=        9944  E=       19548
 ZONETYPE=FETRIANGLE DATAPACKING=BLOCK
 VARLOCATION=([3-7]=CELLCENTERED)
  -19.9782054645671       -16.7460447536127       -13.5432470514743       -10.4462771124608       -7.39483127129757       -4.39431260318683       -1.43672854734527        1.47853524247441        4.40194279230921        7.38347804238703        10.4122197804982        13.5308676756442        16.7310607632789        20.0189460056259        20.0156650185539        20.0123451374732     
   20.0090067226427        20.0056742799471        20.0022854763303        19.9988742323503        19.9954939648514        19.9920871178897        19.9886881104951        19.9853470049941        19.9820070605281        19.9783478910574        16.7317203104092        13.4557822172063        10.1645634122701        6.87452312340184        3.53259687976399       0.170578499054329     
  -3.16443525887912       -6.48474521199279       -9.79114624567630       -13.0836966857758       -16.3754018560739       -20.0188035791356       -20.0155069002833       -20.0121812769038       -20.0088400757232       -20.0054989473046       -20.0021446450312       -19.9987763328347       -19.9953939522161       -19.9920253568386       -19.9886729196427       -19.9853365630757     
  -19.9819979716434       0.999819419259626       0.998303349558658       0.996791658381739       0.995290168945016       0.993744101660049       0.992137123674047       0.990464386481734       0.988730363427346       0.986934934735675       0.985075769382236       0.983138866186009       0.981132758867614       0.979041259076063       0.976877037905392       0.974636236237837     
  0.972311444039230       0.969900107156100       0.967401400531022       0.964813002716439       0.962135271195203       0.959363223611514       0.956489048593648       0.953501627769654       0.950391541192947       0.947187503713178       0.943867841588970       0.940399981733616       0.936826295899039       0.933134659468784       0.929303597321805       0.925298180240696     
  0.921149036949265       0.916850900168581       0.912389867611803       0.907756946086647       0.902945667071257       0.897949485007149       0.892755797648107       0.887351820450239       0.881729863830536       0.875882133824623       0.869809742086933       0.863505429832238       0.856961219002792       0.850167064624244       0.843114073146438       0.835793727712453     
  0.828199619263069       0.820323290313440       0.812156446060008       0.803690676396964       0.794917113372129       0.785828083273042       0.776414662383239       0.766552665071748       0.756331013855895       0.745738283741260       0.734763803031161       0.723400562032230       0.711636192730635       0.699458053305959       0.686858888575219       0.673826940319771     
  0.660348296379114       0.646415570885973       0.632015273214648       0.617130715490760       0.601750779128584       0.585854823725139       0.569430358557236       0.552461891171399       0.535538673778132       0.518578528106630       0.501549168666743       0.484450647572791       0.467282541895997       0.449395089740674       0.432104238604930       0.415408396394715     
  0.399305838505963       0.383780588140693       0.368747912435186       0.354189438202853       0.340101085487655       0.326491685859466       0.313346224120249       0.300665752588365       0.288451216780782       0.276684327691837       0.265340033131404       0.254370834633999       0.243764109791536       0.233507462038816       0.223593632256414       0.214014523831138     
  0.204758452467754       0.195814173987317       0.187177090341107       0.178830937479640       0.170766024122762       0.162965329393883       0.155422020394418       0.148129708275226       0.141082296997578       0.134273575806917       0.127696650806387       0.121345956149978       0.115216287868279       0.109302343101522       0.103599592885317       9.810367109988703E-002
  9.281040119545859E-002  8.771631102095044E-002  8.281768317314830E-002  7.811077239463499E-002  7.367386189519173E-002  6.939978679727520E-002  6.529023229440041E-002  6.134346466782706E-002  5.755963012488032E-002  5.391665558872566E-002  5.042622853228306E-002  4.708626522211632E-002  4.387899978294930E-002  4.077515048839465E-002  3.777157985745973E-002  3.484535161818815E-002
  3.199677120401839E-002  2.923088142811498E-002  2.655047903567903E-002  2.395948703391756E-002  2.146399409005151E-002  1.907161254445021E-002  1.690156716831426E-002  1.481128704323040E-002  1.282047940120732E-002  1.094808008827707E-002  9.218989723995378E-003  7.567818922906632E-003  5.957457249059494E-003  4.491147860624975E-003  3.159330525843032E-003  1.999461825488591E-003
  1.071351331204031E-003  4.436700745209929E-004  1.336517622305621E-004  6.019358012476772E-005  2.987553271039262E-004  8.952733872812219E-004  1.802335253618802E-003  2.931669442716189E-003  4.212344459496654E-003  5.589899421836743E-003  7.258090981223814E-003  9.015605640704930E-003  1.087732622122684E-002  1.275792270211540E-002  1.468644822013056E-002  1.671021854191561E-002
  1.887937211116078E-002  2.116061230129876E-002  2.356373038485840E-002  2.602961970037589E-002  2.856570357875738E-002  3.121565171873636E-002  3.401878882971320E-002  3.697265537364578E-002  4.006689352617144E-002  4.328960539856850E-002  4.663002225169356E-002  5.007635340038506E-002  5.362521537870771E-002  5.727646892080781E-002  6.102280581633222E-002  6.522315553460918E-002
  6.956922770005552E-002  7.405848014029859E-002  7.868781576560517E-002  8.338877471967228E-002  8.823032325597160E-002  9.323868850335489E-002  9.841182619369146E-002  0.103751862560186       0.109249128533424       0.114923053370368       0.120814587713128       0.126973416373248       0.133412600781040       0.140135399545657       0.147138409731436       0.154422929999042     
  0.161992128602611       0.169847097981409       0.177991860681955       0.186429966585294       0.195165932627177       0.204384867248968       0.213945309488173       0.223853069041929       0.234117278408559       0.244746278653764       0.255747277479877       0.267130704996568       0.278907394382407       0.291084939190727       0.303674236070297       0.316687689336287     
  0.330132878185216       0.344019808933489       0.358361993554869       0.373159816768345       0.388424030227490       0.404160822191773       0.420355782850602       0.437019343567711       0.454094147190107       0.471572000265932       0.489126638003235       0.506551158745224       0.523843814275910       0.541006976606675       0.558044343766611       0.574637653767330     
  0.590763258876906       0.606401411233678       0.621550988172672       0.636214021556822       0.650354534101996       0.663983869361283       0.677117253436817       0.689772536885551       0.701969958743138       0.713760832283477       0.725186919799454       0.736256197818189       0.746976889663932       0.757351113266603       0.767387211253843       0.777093939747563     
  0.786480043042766       0.795467461626868       0.804125288096459       0.812458309613709       0.820472389245577       0.828172149167642       0.835561904604247       0.842648884378830       0.849495705612724       0.856132283559736       0.862561706184827       0.868787759029003       0.874814311577951       0.880645356259141       0.886284184397264       0.891733907497907     
  0.896997975401572       0.902080742031853       0.906989944924669       0.911730131602424       0.916305806132119       0.920527505756221       0.924633261729202       0.928621189974687       0.932494178286939       0.936237266800577       0.939847446352024       0.943331084757908       0.946680418738552       0.949899067794022       0.953002396523041       0.955966286364209     
  0.958797403478353       0.961552234166760       0.964227724333143       0.966822035917726       0.969333917696407       0.971762793898038       0.974109845706760       0.976376122655641       0.978564948697945       0.980680237834149       0.982673744835714       0.984612748415809       0.986482560358605       0.988287939625278       0.990032861579666       0.991718627822943     
  0.993340788591397       0.994900620137779       0.996400643336725       0.997896823613999      -1.155515312673614E-003 -9.366577322849717E-004 -1.120805415217592E-003  0.996068137391513       0.997508783679275       0.996062588420409       0.997286383577144      -2.585393390177344E-003 -4.515177215422385E-004  0.995721452974143       0.996500172559524      -2.107670554831198E-003
  0.994679400872470      -2.457886414036169E-003  0.994174278138885       0.992514533332563      -7.868006223754195E-004  0.992962000370124       0.993944116784847      -2.525877574060145E-003 -4.050231365332975E-003  0.995026584655248       0.995185974084990       0.998926920086052      -1.477866894403871E-003  3.226260323221295E-004  0.991214944015078       0.989447925283102     
  0.987677012502734       0.992058952922061       0.998232992822492       0.993508764168192       0.991295714984488      -2.969235641634701E-005 -2.208914806655407E-003 -4.157309677241856E-003  0.992947305987398       0.997479679674684        1.00057687370529       0.998220357441003        1.00126067710007      -3.405537127605469E-003  1.370884906008026E-003  0.996604777980797     
  0.997027827411590       0.999581211284947       0.989564329277044       0.990232097211227       0.988383932476644       0.986473399771879       0.991026390504167       0.992804606729140       1.046707212875427E-003 -9.218158805588438E-004  3.667499547927161E-003   1.00236440762345       0.990549907343378      -5.498244076330144E-003  2.659276674626809E-003  0.991068214662476     
  0.987676791159165       0.989069184165114       2.275238150995627E-003 -4.237318944240667E-003  0.991809811893984       0.999997435422328       0.999436900520728       4.154321052504203E-003  0.989240050002961      -2.622597260720438E-003 -3.869290694168911E-003   1.00327664583095        1.00133673170919       0.994955379037766       0.999086424891904        1.00115933732627     
  0.993851549706680       7.542259326497910E-003 -2.669079850996229E-003  0.999708931635752       0.998847743759760       5.817954486714801E-003  0.985707912087338       0.983718474071121       0.991954910639993       0.998084625204292       0.986963989980764      -5.981181758657741E-003  0.988371136651326       9.229196742413530E-003 -5.529519279342742E-004  6.569214172286228E-004
 -5.447732196523728E-003  0.984382294037706        1.00354777226276       0.987256688057358       0.985054600891267       0.997914173818681       0.995883032818908      -1.522259922383043E-003   1.00414197247086        1.00601933040945        1.00188512524238       0.984814442208211       0.982562367797425        1.00097041913007       0.994268289472006       0.986177229580674     
 -4.835225613635942E-003  5.815577412500213E-003  1.562470478121488E-003  7.598129970952314E-003 -7.200182747995000E-003 -1.883757777479733E-003 -1.146063645044911E-004  2.284838050044434E-004  2.135423245020018E-003  0.994838418643342        1.00271340677899       0.995688008594016       0.988383100545006       0.992663733537157       0.982007743598888       0.979852538438695     
  0.982836324445735       3.869671498550689E-003 -5.684600914356440E-003 -7.572787533583103E-003  0.977705199733361       0.989779664226723       5.247755470235164E-003  0.986107292285335       0.990984040051884       0.993802608723998        1.00047246760220       0.999694838501614       3.107561317151386E-003   1.00548117091952        1.00445543425458       0.996682879439260     
  0.998635130376632       6.369803395590798E-003   1.00012602727050        1.00242724397375       1.102219045760137E-002   1.00301753510109        1.00697719423797        1.00471133689596        1.00731150662148       0.990192332251703       0.993286708012446       0.989100879996343       1.606220923227994E-003  7.001856709239076E-003  0.990137209320722       0.986031275787540     
  0.983378426387940       9.019145748707158E-003 -6.215173712356650E-003 -4.050933597534168E-003 -2.566224899970533E-003 -3.865801887989659E-003  0.991473397277897       0.992589741761540       0.980718292680631       0.978525242939219       0.976147192916842       1.080058746444700E-002  0.992109844412169       0.996128012972189       0.995105559398062       0.997166593508925     
  4.849141412587000E-003  1.274043033303936E-002  0.987708293406781       0.987400177141429        1.00334538538366       0.989417741658364       8.871844355038315E-003  0.987458678768537      -4.273109634648324E-003 -8.135745711605344E-003  0.981511732441463       0.980163275242588       1.302585346543927E-002  0.981957129527586       0.977664982534647      -6.239675656317393E-003
  0.985457894818800      -7.605433010971980E-003  1.106174125278097E-002  0.994648210809885      -3.156738943206297E-003  3.693301438057179E-003  0.975376387622075       1.077325006428999E-002 -7.011146256104203E-004  7.839734830661750E-004  1.472607317827798E-002 -9.476870866174988E-004  6.754203529082842E-003  0.978780914486930      -6.369844447279945E-003 -9.089462567628090E-003
  8.766627379854947E-003   1.00568629704344        1.00857945287404       0.979611979479032       0.977160909839597       0.974049750351492       0.984694444129292       0.982552426008935       0.993835779015802      -1.745582668920127E-003  1.268286557937087E-002 -9.890340504596749E-003  0.976746283896201       0.974373364050478       1.515048951790664E-002  4.443776290740322E-003
  8.791773780880439E-003  1.080789329048425E-002  0.973013624078346       0.970620131690044      -8.375826859500727E-003 -1.050057289207088E-002 -5.806508724048751E-005  1.326149032729605E-002  0.983796278840961       0.980960276894185       0.982858181491778       0.980222115201648       0.981056656600498       0.980610308232590        1.00899530069376        1.00571615529398     
 -6.046428305194127E-003  1.027046184641932E-003   1.00223748826712        1.00147089661893       0.984865838064882        1.00436881981420        1.00401850798602       0.971870146602502       1.736587364010236E-002  0.981898851194173       0.983293216938764       1.120563141530878E-002  0.998752811032241       0.989640320315486       0.969286509014888      -3.680146724802119E-003
 -5.175270322256973E-003  0.985722592405120       0.996099837429268       1.551175315927069E-002  0.979542732508072       2.508657594259292E-003  1.683838108318492E-002  1.468252182716572E-002  0.973681879671910        1.00797459093222       0.978776270635614        1.00147358136614        1.00040669426925       0.978388311711261       0.997695177032776       1.357196306357360E-002
 -4.501290362435914E-003 -8.429621357135809E-003 -2.858667998622695E-003 -1.012101274864410E-002 -9.746192852669939E-003  3.469900118676447E-003  0.975807149442739       0.975935899578753       0.973349180872928       1.162024544915171E-002   1.00962679680906       0.970988769114259       0.968523237581309       6.561026023705652E-003  0.971879972762434       0.966036932165977     
  0.963799719517435       8.886658466734835E-003 -7.929337715354918E-003 -1.085573221876743E-002 -1.893371092371729E-003  1.909708174334836E-002  1.691705281588363E-002  0.996575242101980        1.00320234737218      -1.193976773932228E-002  0.983094636922191       0.979920965099778      -9.628224881499711E-004 -7.349175545673617E-003  1.455431568074454E-002   1.00211838517476     
 -1.068562606614711E-002 -1.300563524158664E-002  0.977727329285352       0.977242022497641       8.808131136264129E-003  9.403727813870989E-003  0.987674308848494        1.01110001643922       0.990579982838915       1.584590532687877E-002  1.880339439924498E-003  0.969672720529744       0.967181053131144       0.964547090241688       0.961489183086138       1.783343147063367E-002
  2.647362833435522E-004  0.970635043607289       1.395086256536530E-002  1.969884326433179E-002 -1.228994176317887E-002  0.993485331372384       0.994886047696183       0.997630957452217       6.487721382991052E-003 -6.515262625754839E-003   1.00631663476861        1.00628330837790       0.967785039292060      -5.843103211721084E-003 -4.875186276008713E-003  4.059416627038732E-003
  0.971056598846527       1.279015330845923E-002  0.999334091899988        1.00102511163276       2.146047265024907E-002  1.931023447997765E-002  1.698947796671406E-002 -4.062017507746056E-003  2.214076499414992E-002  0.975087750885365       0.972258932291996      -1.472521356458293E-002  0.988044597043950      -1.064418809013940E-002   1.01073058004460       1.591287481200279E-002
  9.307753844691896E-003  2.028017077965298E-002   1.00492279617407       0.968481239266001       0.965902749931224       0.996259095265360       0.962938720772549       2.383958046262112E-002  6.172025875600182E-003  2.177857123807885E-002   1.00891086680356       6.354694445495675E-003  3.690574553570781E-003  3.358160717651002E-003  1.824559444367184E-002  3.295914548931148E-003
 -8.947260891392113E-003  0.990548803640231       0.985551356235207       0.983528476018901       0.985948380186539       0.987987692040996       0.995273514125130       1.443560337538334E-002 -1.958681592725487E-003  0.966381346033642       2.089692889939155E-002  0.969755724547107       0.991139719566146       0.990155909472681       0.987805032310556       0.985599290840564     
  0.988488856546047       0.989426276349250      -1.230946099139907E-002 -3.075755209678480E-003   1.00045792195730       0.984659304628222       0.968484085867470       0.998210357218872       0.996993465627592       2.617750398022357E-002   1.00836501840075        1.00659181244560        1.01013332671165        1.01183130949447      -1.309423653152946E-002 -1.568026151571920E-002
 -8.534060099547703E-003  1.959825355573348E-002  1.709733381842003E-002  1.435720059055199E-002 -1.014830722220978E-002  0.990865914368934        1.00926128895386       6.205388034359832E-003  0.980659399492197      -7.306945534933645E-003  0.992554370316140       0.993257712410222       0.994407816290958       1.227766522063689E-003  0.972605498525008       1.234645494632382E-002
  1.191670958531827E-002  0.981116402802349       0.970989871425214       0.959630409380413       0.963236608476957       0.960345665165920        1.00438908882607       0.964885651034171       0.968097858671556       0.973967462758762       0.972293039525889       0.975946471288743       0.976859580684368       0.975249792554209       0.973621953861592       0.957355318243763     
  0.954067720771495      -5.446365169495944E-003 -1.288952943273803E-002   1.01234018594118        1.01354755747262       0.982709233735183       0.980147598517883       6.596034175583500E-003  6.789854788071946E-004  5.849670626855055E-004  2.521180887038222E-004 -6.109182657869834E-003   1.01163628294778        1.00733773595821      -1.053331017952236E-002  2.872879041347456E-002
  2.589306782349041E-002 -1.505886476303043E-002  9.043269954224196E-003 -1.556216853274811E-002 -1.848038663686143E-002  0.992303905747607       0.990405135907309      -1.262382923526485E-002 -1.537565330747195E-002  2.703730514540458E-002   1.01122738993877       1.166837845857563E-002  0.986795370249074       0.987383937742475        1.00328289367656        1.00928952471514     
   1.01215735477227       0.988007081710907       0.962048549594534       0.959094699465100       0.955856703094963       0.952316624402891      -3.130502191296057E-003  0.978069406016670       0.985232566675731       0.984648175260298       0.982939681238936        1.00946150086540       0.977826296916994      -1.240075140378388E-002  0.984407573411600       0.967420631482410     
  0.969333837981338       0.970682243546559       0.971852723240163        1.01134572975068        1.01192545628959      -8.939348902458620E-003 -1.801076056172376E-002  0.963646975356827       0.974074024286444       0.971143846169805       6.094821225099883E-003   1.00743166556164      -4.166421001705445E-003 -7.866157689027443E-003   1.01215277452359        1.00444221968863     
   1.00230932686443        1.01312061243109       2.242643812444934E-002  2.972788493594632E-002  2.699563551678741E-002 -9.233959604942032E-003  2.279352843655951E-002  2.459811704316573E-002  2.371163986168705E-002  0.978335944875124       0.977039622798798       3.111980885753484E-003  3.000497294997123E-003  0.999319770560229       9.770665017277838E-003   1.01422116490456     
  0.961105983586841       0.987874018942499       0.993689640548563       0.995540555561400       0.958056974872733      -1.222065234771890E-002 -1.515361948104491E-002  0.964932150715016       0.980545295200140      -1.534096781050656E-002  0.981494014404169       0.984713999604965       0.991096945382724        1.00676264985621       0.973162445725221       0.969327231543134     
  0.966251930882786       0.963956767336699       0.967941803588793        1.01358262012299      -7.336980928302731E-003 -1.091714198031362E-002  1.144901501245073E-002  2.402109423506739E-002  1.998858897575000E-002  1.721817346714565E-002  3.147519942360341E-002  2.903648716720923E-002  2.759297380310978E-002   1.00527014818812       1.426604291876789E-002 -1.581872007037266E-003
 -1.556197719586243E-003   1.01441683297216        1.01672746336529      -1.548472053103414E-002  0.954949631328653       0.951833960110225       3.266701607909109E-002  3.037489922969799E-002  2.811045226243370E-002 -1.244908719673880E-002   1.01410626413338        1.01779732248788       0.975603726517875       0.970144627274377      -5.245481290834432E-003  8.773267173133502E-003
  6.955510610619942E-003 -1.846263411671832E-002   1.01432995491762        1.01542367553521       2.504238147247154E-002  2.162012270911321E-002  0.966238995894686       0.967757789597244       0.969252743874247       0.969439173306668       0.998028446750827        1.00578395179528        1.00851462805738        1.00430916553481      -1.076952689760301E-002 -1.323652436496902E-002
 -1.540829020247038E-002  0.948650197281608      -1.065189621552809E-002 -1.407349055335827E-002  0.975505076145670       0.956436872594242        1.00932273510497        1.01216093420235       0.981454370491398      -1.401674194263448E-002  0.991553307889107      -1.774467120248634E-002 -2.104841579766193E-002  3.559502926879963E-002  3.340415458764290E-002  3.125720413207923E-002
  2.927499271762898E-002  0.972551900576051       0.975358279563240        1.00122806529202       0.999976878226539       2.330672323609547E-002   1.00743065234892       7.594136907192433E-006  5.881858953879415E-003  3.045424533719997E-003  0.966848449404276       0.969235838708465       0.978519991113335       2.480842820605782E-002  1.864041876687713E-002  1.597373730757538E-002
   1.00005706087796        1.00259423848841       0.999142564101459        1.00619329141506        1.01491006740963        1.01511448191837       1.302568886888037E-002   1.00384893441334       3.436606671799750E-002  3.148610024952757E-002  0.953384894124876       0.950127763100673        1.00568043542728       0.946558860952569       3.853831696579895E-002  3.629005225620247E-002
  3.416191624040119E-002   1.00925479285138       0.961183097892353       0.957697727508915       1.913720813562277E-002  0.962812513582369       0.985275025018598       0.977308711005859      -1.675126655939401E-002  0.965744395832223       2.033383162854826E-002  1.730690055212704E-002  0.964519759229550       0.966512030704209      -1.500131598534201E-004 -7.237873954149049E-003
 -1.423386576665586E-002  1.001643921334779E-002  0.964035264402040       0.961825430488380       0.968170652435009      -1.766820854179544E-002  8.468452652001851E-003  0.954901665458436       1.413673759523382E-002  2.244115670456465E-002  2.587350510796817E-002 -1.241890496673604E-002 -1.536858122902679E-002 -1.382616912035995E-002 -1.712815827631411E-002 -1.776199441877750E-002
  0.954916963169539       0.959090975985270      -2.175788698433623E-002  4.158471708094167E-002  3.916220607940808E-002  3.680473823647611E-002  3.500739237129475E-002  6.961102888334492E-003   1.01265185461844        1.01723299961911        1.01918157902875        1.01000843818077        1.01691202678020       0.971932924284961       0.975337848300911       0.960888001347679     
 -2.457725477985716E-003  3.749776850204634E-002  3.473518334359350E-002  3.171327329898335E-002  0.952048622518334       0.948277492493965       2.370431524564277E-002  0.996951190147303       4.408026609865350E-003  4.085275109693712E-003 -1.799050038120768E-002 -1.576183473417463E-002 -1.762184319771028E-002  0.962871150038535       0.958975093589597       0.978400805868468     
  5.766728635658145E-003  3.643144646817005E-003  1.332500803971594E-002  1.114159080471504E-002  0.943727836547706       0.948738473045115      -1.854670513914092E-002 -1.849542634199935E-002 -1.775757314983273E-002 -2.154214072097659E-002  0.965186458061167       4.478882667826756E-002  4.231858791078902E-002  3.936698047761036E-002  1.977514298220402E-002  0.954429294570909     
  0.957856143100399       0.960030851497073       0.950884261497162       0.956590217035431       0.953025384250946       0.949405929935635       7.785257609750574E-003 -1.225732677930150E-002  0.997977696297193       0.974653790516894       0.973442561141011      -2.032209189169827E-002 -2.031096268412956E-002  0.970930980089261       1.633919931024778E-002  1.482428161469479E-003
  0.981643790443521       0.984691996728783       1.682619582915350E-002  2.057730944604743E-002  1.738182332455765E-002  1.401632800914497E-002  4.073422010731340E-002  3.809340494348659E-002  0.978969282263420       0.973750733364865       1.016557335556955E-002  6.844797801873739E-003  0.945283682053325       0.941779636239490       1.012403428441381E-003  1.073586563740976E-002
   1.01449918580363       0.961087023887952       0.956962512260812      -1.925590396700199E-002 -2.148347725131538E-002  0.938176163924860       0.934521342152882       2.338136527032688E-002  0.947341502111647       3.523985415928519E-002  3.206338546721776E-002  2.718592257744647E-002  4.811586435763034E-002  4.570875692788484E-002  4.324504563918965E-002  4.116553918445951E-002
 -6.220283842897727E-004  0.987906078366444       0.991137363636010       0.955262964752250       3.821985202608335E-003 -1.915326691232940E-003   1.01445674918327       2.402781436845108E-002  4.401667353921312E-002  4.141681284585041E-002  3.890217295622896E-002  2.052517737452959E-002  6.946733901368322E-003  1.365704734014545E-002  0.943823895660361       0.940229278682120     
  0.942757942156589       0.987866249076871       0.994338221744783       0.994403449336100       0.945804380252067      -2.163996311884289E-003  0.958875429894016       0.951512582515647       0.947734827601429       0.988952317319881       0.992638937623311       0.938667638536058        1.01101317066279       0.991141643601919       0.934871458648793       0.956983667084507     
  0.954974433983494       0.952829133813516       0.971993531140085       0.945882878066456       0.957713269225899       1.029227977615367E-002  6.675743503318147E-003   1.01677333714220        1.01536201588432        1.01679760576188        1.01902703676621       9.001584644262852E-004 -1.335967285291799E-003  1.038052820894079E-002  4.737738929865304E-002  4.462309827605436E-002
  4.207973745160916E-002  4.060140833544875E-002  0.950635053380600       0.946522545062212       0.930868950897256       2.084222114838060E-002  1.750645260760342E-002  2.651219189185760E-002  0.989896070416505       0.978639160233471       0.982513728250033       0.986246725592510       0.975354828182762       0.975345439796491       5.154772438818284E-002  4.910232424370184E-002
  4.662781572540436E-002  4.424497288992197E-002  4.115176030169727E-002  0.953780602771789       0.956188382261394       1.399893469927288E-002  1.738163375847448E-002  0.961753890849495       0.993567530739591       0.964280149175336       0.960253156257060       0.966836278047083       0.940281537601579       0.998430625895638        1.00142711508391       0.994538556279579     
  0.942432348869947       0.938735350971630        1.00223791521223       0.949004035215637       1.402349165024792E-002   1.01793539966074       2.812786213332482E-002  3.246217015908211E-003  0.936470482510420       0.952946539958821        1.00066038331780        1.00341613614720        1.00654233866044       0.967760272204309       0.945126587184179       0.949796945276303     
  0.945231731478607       6.375671841958495E-003  5.089245584306900E-002  4.799139090055808E-002  4.480347820037103E-002 -9.371109489130348E-003 -1.245357600464107E-002 -1.585682631555104E-002 -5.672415543284190E-003 -8.033175755532983E-003 -3.743667996611010E-003  0.987726565814249       0.979788965227474       0.999770021706764       0.944539149331147       0.936876034056287     
  0.932860744109106       2.456036468593563E-002  2.847568074895372E-002  2.448908313124962E-002  0.997233443041863       0.998575813131395       0.991105173056343        1.01831804085787        1.02038028002888       0.990713216211337       0.996228723970136       0.997353450955934       0.994488437733066       0.984504100174178       0.963408600909760       1.044775173812455E-002
  6.602701791606301E-003  0.934682542845498       0.951036367634541       0.948702226959715       3.215386309756357E-002  3.105599194922278E-002  2.907019896688044E-002  0.942289203906404       0.947633901432447       0.944220283314327       5.510793473985177E-002  5.258583397321612E-002  4.997731387874647E-002  0.983588563629819       0.987141200414745       0.987641358807261     